 Entering Gaussian System, Link 0=g09
 Initial command:
 /usr/local/gaussian/g09/l1.exe "/scratch/1715567.1.multiway.q/Gau-186784.inp" -scrdir="/scratch/1715567.1.multiway.q/"
 Entering Link 1 = /usr/local/gaussian/g09/l1.exe PID=    186785.
  
 Copyright (c) 1988,1990,1992,1993,1995,1998,2003,2009,2013,
            Gaussian, Inc.  All Rights Reserved.
  
 This is part of the Gaussian(R) 09 program.  It is based on
 the Gaussian(R) 03 system (copyright 2003, Gaussian, Inc.),
 the Gaussian(R) 98 system (copyright 1998, Gaussian, Inc.),
 the Gaussian(R) 94 system (copyright 1995, Gaussian, Inc.),
 the Gaussian 92(TM) system (copyright 1992, Gaussian, Inc.),
 the Gaussian 90(TM) system (copyright 1990, Gaussian, Inc.),
 the Gaussian 88(TM) system (copyright 1988, Gaussian, Inc.),
 the Gaussian 86(TM) system (copyright 1986, Carnegie Mellon
 University), and the Gaussian 82(TM) system (copyright 1983,
 Carnegie Mellon University). Gaussian is a federally registered
 trademark of Gaussian, Inc.
  
 This software contains proprietary and confidential information,
 including trade secrets, belonging to Gaussian, Inc.
  
 This software is provided under written license and may be
 used, copied, transmitted, or stored only in accord with that
 written license.
  
 The following legend is applicable only to US Government
 contracts under FAR:
  
                    RESTRICTED RIGHTS LEGEND
  
 Use, reproduction and disclosure by the US Government is
 subject to restrictions as set forth in subparagraphs (a)
 and (c) of the Commercial Computer Software - Restricted
 Rights clause in FAR 52.227-19.
  
 Gaussian, Inc.
 340 Quinnipiac St., Bldg. 40, Wallingford CT 06492
  
  
 ---------------------------------------------------------------
 Warning -- This program may not be used in any manner that
 competes with the business of Gaussian, Inc. or will provide
 assistance to any competitor of Gaussian, Inc.  The licensee
 of this program is prohibited from giving any competitor of
 Gaussian, Inc. access to this program.  By using this program,
 the user acknowledges that Gaussian, Inc. is engaged in the
 business of creating and licensing software in the field of
 computational chemistry and represents and warrants to the
 licensee that it is not a competitor of Gaussian, Inc. and that
 it will not use this program in any manner prohibited above.
 ---------------------------------------------------------------
  

 Cite this work as:
 Gaussian 09, Revision D.01,
 M. J. Frisch, G. W. Trucks, H. B. Schlegel, G. E. Scuseria, 
 M. A. Robb, J. R. Cheeseman, G. Scalmani, V. Barone, B. Mennucci, 
 G. A. Petersson, H. Nakatsuji, M. Caricato, X. Li, H. P. Hratchian, 
 A. F. Izmaylov, J. Bloino, G. Zheng, J. L. Sonnenberg, M. Hada, 
 M. Ehara, K. Toyota, R. Fukuda, J. Hasegawa, M. Ishida, T. Nakajima, 
 Y. Honda, O. Kitao, H. Nakai, T. Vreven, J. A. Montgomery, Jr., 
 J. E. Peralta, F. Ogliaro, M. Bearpark, J. J. Heyd, E. Brothers, 
 K. N. Kudin, V. N. Staroverov, T. Keith, R. Kobayashi, J. Normand, 
 K. Raghavachari, A. Rendell, J. C. Burant, S. S. Iyengar, J. Tomasi, 
 M. Cossi, N. Rega, J. M. Millam, M. Klene, J. E. Knox, J. B. Cross, 
 V. Bakken, C. Adamo, J. Jaramillo, R. Gomperts, R. E. Stratmann, 
 O. Yazyev, A. J. Austin, R. Cammi, C. Pomelli, J. W. Ochterski, 
 R. L. Martin, K. Morokuma, V. G. Zakrzewski, G. A. Voth, 
 P. Salvador, J. J. Dannenberg, S. Dapprich, A. D. Daniels, 
 O. Farkas, J. B. Foresman, J. V. Ortiz, J. Cioslowski, 
 and D. J. Fox, Gaussian, Inc., Wallingford CT, 2013.
 
 ******************************************
 Gaussian 09:  ES64L-G09RevD.01 24-Apr-2013
                31-Aug-2018 
 ******************************************
 ----------------------
 # opt=modredundant pm6
 ----------------------
 1/14=-1,18=120,19=15,26=1,38=1/1,3;
 2/9=110,12=2,17=6,18=5,40=1/2;
 3/5=2,16=1,25=1,41=3900000,71=1/1,2,3;
 4/35=1/1;
 5/5=2,35=1,38=5/2;
 6/7=2,8=2,9=2,10=2,28=1/1;
 7//1,2,3,16;
 1/14=-1,18=20,19=15,26=1/3(2);
 2/9=110/2;
 99//99;
 2/9=110/2;
 3/5=2,16=1,25=1,41=3900000,71=1,135=20/1,2,3;
 4/5=5,16=3,35=1/1;
 5/5=2,35=1,38=5/2;
 7//1,2,3,16;
 1/14=-1,18=20,19=15,26=1/3(-5);
 2/9=110/2;
 6/7=2,8=2,9=2,10=2,19=2,28=1/1;
 99/9=1/99;
 -------------------
 Title Card Required
 -------------------
 Symbolic Z-matrix:
 Charge = -1 Multiplicity = 1
 C                     0.12059  -0.91041  -0.00158 
 H                     0.47725  -1.91922  -0.00158 
 H                     0.47727  -0.40602   0.87207 
 H                     0.47727  -0.40602  -0.87523 
 Cl                    3.63815  -0.7877   -0.04763 
 F                    -1.22941  -0.9104   -0.00158 
 
 Add virtual bond connecting atoms Cl5        and H2         Dist= 6.35D+00.
 Add virtual bond connecting atoms Cl5        and H3         Dist= 6.26D+00.
 Add virtual bond connecting atoms Cl5        and H4         Dist= 6.22D+00.
 The following ModRedundant input section has been read:
 B       1       5 S  20 -0.100                                                
 

 GradGradGradGradGradGradGradGradGradGradGradGradGradGradGradGradGradGrad
 Berny optimization.
 Initialization pass.
                           ----------------------------
                           !    Initial Parameters    !
                           ! (Angstroms and Degrees)  !
 --------------------------                            --------------------------
 ! Name  Definition              Value          Derivative Info.                !
 --------------------------------------------------------------------------------
 ! R1    R(1,2)                  1.07           estimate D2E/DX2                !
 ! R2    R(1,3)                  1.07           estimate D2E/DX2                !
 ! R3    R(1,4)                  1.07           estimate D2E/DX2                !
 ! R4    R(1,5)                  3.52           Scan                            !
 ! R5    R(1,6)                  1.35           estimate D2E/DX2                !
 ! R6    R(2,5)                  3.3576         estimate D2E/DX2                !
 ! R7    R(3,5)                  3.314          estimate D2E/DX2                !
 ! R8    R(4,5)                  3.2897         estimate D2E/DX2                !
 ! A1    A(2,1,3)              109.4712         estimate D2E/DX2                !
 ! A2    A(2,1,4)              109.4712         estimate D2E/DX2                !
 ! A3    A(2,1,6)              109.4712         estimate D2E/DX2                !
 ! A4    A(3,1,4)              109.4713         estimate D2E/DX2                !
 ! A5    A(3,1,6)              109.4712         estimate D2E/DX2                !
 ! A6    A(4,1,6)              109.4712         estimate D2E/DX2                !
 ! A7    A(1,2,5)               89.7744         estimate D2E/DX2                !
 ! A8    A(1,3,5)               92.1234         estimate D2E/DX2                !
 ! A9    A(1,4,5)               93.4504         estimate D2E/DX2                !
 ! A10   A(2,5,3)               30.3565         estimate D2E/DX2                !
 ! A11   A(2,5,4)               30.4575         estimate D2E/DX2                !
 ! A12   A(3,5,4)               30.683          estimate D2E/DX2                !
 ! D1    D(3,1,2,5)            -60.7858         estimate D2E/DX2                !
 ! D2    D(4,1,2,5)             59.2142         estimate D2E/DX2                !
 ! D3    D(6,1,2,5)            179.2142         estimate D2E/DX2                !
 ! D4    D(2,1,3,5)             62.2382         estimate D2E/DX2                !
 ! D5    D(4,1,3,5)            -57.7618         estimate D2E/DX2                !
 ! D6    D(6,1,3,5)           -177.7618         estimate D2E/DX2                !
 ! D7    D(2,1,4,5)            -61.4534         estimate D2E/DX2                !
 ! D8    D(3,1,4,5)             58.5466         estimate D2E/DX2                !
 ! D9    D(6,1,4,5)            178.5466         estimate D2E/DX2                !
 ! D10   D(1,2,5,3)             31.7164         estimate D2E/DX2                !
 ! D11   D(1,2,5,4)            -31.3137         estimate D2E/DX2                !
 ! D12   D(1,3,5,2)            -31.7405         estimate D2E/DX2                !
 ! D13   D(1,3,5,4)             30.5514         estimate D2E/DX2                !
 ! D14   D(1,4,5,2)             31.3768         estimate D2E/DX2                !
 ! D15   D(1,4,5,3)            -30.5895         estimate D2E/DX2                !
 --------------------------------------------------------------------------------
 Trust Radius=3.00D-01 FncErr=1.00D-07 GrdErr=1.00D-07
 Number of optimizations in scan=  21
 Number of steps in this run=     45 maximum allowed number of steps=    100.
 GradGradGradGradGradGradGradGradGradGradGradGradGradGradGradGradGradGrad

                          Input orientation:                          
 ---------------------------------------------------------------------
 Center     Atomic      Atomic             Coordinates (Angstroms)
 Number     Number       Type             X           Y           Z
 ---------------------------------------------------------------------
      1          6           0        0.120595   -0.910415   -0.001579
      2          1           0        0.477249   -1.919225   -0.001579
      3          1           0        0.477268   -0.406016    0.872073
      4          1           0        0.477268   -0.406016   -0.875230
      5         17           0        3.638154   -0.787699   -0.047626
      6          9           0       -1.229405   -0.910398   -0.001579
 ---------------------------------------------------------------------
                    Distance matrix (angstroms):
                    1          2          3          4          5
     1  C    0.000000
     2  H    1.070000   0.000000
     3  H    1.070000   1.747302   0.000000
     4  H    1.070000   1.747302   1.747303   0.000000
     5  Cl   3.520000   3.357646   3.314020   3.289652   0.000000
     6  F    1.350000   1.982524   1.982524   1.982524   4.869323
                    6
     6  F    0.000000
 Stoichiometry    CH3ClF(1-)
 Framework group  C1[X(CH3ClF)]
 Deg. of freedom    12
 Full point group                 C1      NOp   1
 Largest Abelian subgroup         C1      NOp   1
 Largest concise Abelian subgroup C1      NOp   1
                         Standard orientation:                         
 ---------------------------------------------------------------------
 Center     Atomic      Atomic             Coordinates (Angstroms)
 Number     Number       Type             X           Y           Z
 ---------------------------------------------------------------------
      1          6           0        1.393241    0.021876   -0.000001
      2          1           0        1.065084    0.976680   -0.354348
      3          1           0        1.031769   -0.132734    0.995154
      4          1           0        1.013351   -0.746203   -0.640811
      5         17           0       -2.126667   -0.003601    0.000000
      6          9           0        2.742632   -0.018643    0.000001
 ---------------------------------------------------------------------
 Rotational constants (GHZ):    163.4864673      1.5358275      1.5357607
 Standard basis: VSTO-6G (5D, 7F)
 There are    21 symmetry adapted cartesian basis functions of A   symmetry.
 There are    20 symmetry adapted basis functions of A   symmetry.
    20 basis functions,   126 primitive gaussians,    21 cartesian basis functions
    11 alpha electrons       11 beta electrons
       nuclear repulsion energy        64.1720825269 Hartrees.
 Integral buffers will be    131072 words long.
 Regular integral format.
 Two-electron integral symmetry is turned off.
 Do NDO integrals.
 One-electron integrals computed using PRISM.
 NBasis=    20 RedAO= F EigKep=  0.00D+00  NBF=    20
 NBsUse=    20 1.00D-04 EigRej=  0.00D+00 NBFU=    20
 Nonelectrostatic core Hamiltonian diagonalized for initial guess.
 Overlap will be assumed to be unity.
 Keep J ints in memory in canonical form, NReq=1875445.
 Requested convergence on RMS density matrix=1.00D-08 within 128 cycles.
 Requested convergence on MAX density matrix=1.00D-06.
 Requested convergence on             energy=1.00D-06.
 No special actions if energy rises.
 SCF Done:  E(RPM6) = -0.190715485173     A.U. after   14 cycles
            NFock= 13  Conv=0.36D-08     -V/T= 0.9853

 **********************************************************************

            Population analysis using the SCF density.

 **********************************************************************

 Orbital symmetries:
       Occupied  (A) (A) (A) (A) (A) (A) (A) (A) (A) (A) (A)
       Virtual   (A) (A) (A) (A) (A) (A) (A) (A) (A)
 The electronic state is 1-A.
 Alpha  occ. eigenvalues --   -1.39118  -0.80140  -0.75922  -0.50857  -0.50847
 Alpha  occ. eigenvalues --   -0.46418  -0.35431  -0.35387  -0.15466  -0.15395
 Alpha  occ. eigenvalues --   -0.15394
 Alpha virt. eigenvalues --    0.24660   0.33732   0.33810   0.36349   3.95508
 Alpha virt. eigenvalues --    3.95542   3.95543   3.95702   3.95702
          Condensed to atoms (all electrons):
               1          2          3          4          5          6
     1  C    4.228984   0.000000   0.000000   0.000000   0.000000   0.000000
     2  H    0.000000   0.850704   0.000000   0.000000   0.000000   0.000000
     3  H    0.000000   0.000000   0.848214   0.000000   0.000000   0.000000
     4  H    0.000000   0.000000   0.000000   0.846793   0.000000   0.000000
     5  Cl   0.000000   0.000000   0.000000   0.000000   7.999480   0.000000
     6  F    0.000000   0.000000   0.000000   0.000000   0.000000   7.225825
 Mulliken charges:
               1
     1  C   -0.228984
     2  H    0.149296
     3  H    0.151786
     4  H    0.153207
     5  Cl  -0.999480
     6  F   -0.225825
 Sum of Mulliken charges =  -1.00000
 Mulliken charges with hydrogens summed into heavy atoms:
               1
     1  C    0.225305
     5  Cl  -0.999480
     6  F   -0.225825
 Charge=             -1.0000 electrons
 Dipole moment (field-independent basis, Debye):
    X=              8.1214    Y=              0.0670    Z=             -0.0001  Tot=              8.1217
 N-N= 6.417208252688D+01 E-N=-1.045680561133D+02  KE=-1.295006876367D+01
 Calling FoFJK, ICntrl=      2127 FMM=F ISym2X=0 I1Cent= 0 IOpClX= 0 NMat=1 NMatS=1 NMatT=0.
 ***** Axes restored to original set *****
 -------------------------------------------------------------------
 Center     Atomic                   Forces (Hartrees/Bohr)
 Number     Number              X              Y              Z
 -------------------------------------------------------------------
      1        6           0.011582120   -0.000245087    0.000093122
      2        1           0.005250320   -0.014836174   -0.000052936
      3        1           0.005463154    0.007632471    0.012904730
      4        1           0.005588939    0.007634363   -0.013013517
      5       17          -0.003053609   -0.000103021    0.000037187
      6        9          -0.024830924   -0.000082552    0.000031413
 -------------------------------------------------------------------
 Cartesian Forces:  Max     0.024830924 RMS     0.009193350

 GradGradGradGradGradGradGradGradGradGradGradGradGradGradGradGradGradGrad
 Berny optimization.
 FormGI is forming the generalized inverse of G from B-inverse, IUseBI=4.
 Internal  Forces:  Max     0.024830923 RMS     0.006113645
 Search for a local minimum.
 Step number   1 out of a maximum of   45 on scan point     1 out of    21
 All quantities printed in internal units (Hartrees-Bohrs-Radians)
 Mixed Optimization -- RFO/linear search
 Second derivative matrix not updated -- first step.
 ITU=  0
     Eigenvalues ---    0.03141   0.03351   0.06199   0.07179   0.07194
     Eigenvalues ---    0.09567   0.09652   0.32254   0.32315   0.35447
     Eigenvalues ---    0.550211000.000001000.000001000.000001000.00000
     Eigenvalues --- 1000.000001000.000001000.000001000.000001000.00000
     Eigenvalues --- 1000.000001000.000001000.000001000.000001000.00000
     Eigenvalues --- 1000.000001000.000001000.000001000.000001000.00000
     Eigenvalues --- 1000.000001000.000001000.000001000.000001000.00000
 RFO step:  Lambda=-3.06385081D-03 EMin= 3.14068849D-02
 Linear search not attempted -- first point.
 Iteration  1 RMS(Cart)=  0.01421951 RMS(Int)=  0.00005912
 Iteration  2 RMS(Cart)=  0.00002957 RMS(Int)=  0.00000695
 Iteration  3 RMS(Cart)=  0.00000000 RMS(Int)=  0.00000695
 Iteration  1 RMS(Cart)=  0.00000017 RMS(Int)=  0.00000043
 Variable       Old X    -DE/DX   Delta X   Delta X   Delta X     New X
                                 (Linear)    (Quad)   (Total)
    R1        2.02201   0.01440   0.00000   0.04025   0.04025   2.06226
    R2        2.02201   0.01450   0.00000   0.04081   0.04080   2.06281
    R3        2.02201   0.01455   0.00000   0.04114   0.04114   2.06315
    R4        6.65184   0.00020   0.00000   0.00000   0.00000   6.65183
    R5        2.55113   0.02483   0.00000   0.04488   0.04488   2.59601
    R6        6.34503  -0.00037   0.00000  -0.00537  -0.00536   6.33967
    R7        6.26259  -0.00074   0.00000  -0.00745  -0.00745   6.25514
    R8        6.21654  -0.00095   0.00000  -0.00870  -0.00870   6.20784
    A1        1.91063  -0.00018   0.00000  -0.00189  -0.00190   1.90873
    A2        1.91063  -0.00021   0.00000  -0.00266  -0.00268   1.90796
    A3        1.91063   0.00019   0.00000   0.00207   0.00208   1.91271
    A4        1.91063  -0.00024   0.00000  -0.00416  -0.00417   1.90646
    A5        1.91063   0.00021   0.00000   0.00304   0.00305   1.91368
    A6        1.91063   0.00023   0.00000   0.00359   0.00360   1.91423
    A7        1.56686  -0.00195   0.00000  -0.00362  -0.00361   1.56324
    A8        1.60786  -0.00210   0.00000  -0.00354  -0.00354   1.60432
    A9        1.63102  -0.00219   0.00000  -0.00346  -0.00347   1.62755
   A10        0.52982   0.00389   0.00000   0.01106   0.01107   0.54089
   A11        0.53158   0.00392   0.00000   0.01105   0.01106   0.54264
   A12        0.53552   0.00397   0.00000   0.01102   0.01102   0.54654
    D1       -1.06091   0.00031   0.00000   0.00406   0.00406  -1.05686
    D2        1.03348  -0.00022   0.00000  -0.00382  -0.00382   1.02966
    D3        3.12788   0.00004   0.00000   0.00022   0.00022   3.12809
    D4        1.08626  -0.00038   0.00000  -0.00393  -0.00393   1.08233
    D5       -1.00813   0.00014   0.00000   0.00303   0.00302  -1.00511
    D6       -3.10253  -0.00012   0.00000  -0.00068  -0.00069  -3.10321
    D7       -1.07256   0.00033   0.00000   0.00358   0.00358  -1.06899
    D8        1.02183  -0.00017   0.00000  -0.00291  -0.00290   1.01893
    D9        3.11623   0.00008   0.00000   0.00047   0.00047   3.11670
   D10        0.55356   0.00033   0.00000   0.00054   0.00055   0.55411
   D11       -0.54653  -0.00038   0.00000  -0.00098  -0.00099  -0.54752
   D12       -0.55398  -0.00025   0.00000  -0.00028  -0.00030  -0.55427
   D13        0.53322   0.00039   0.00000   0.00161   0.00162   0.53485
   D14        0.54763   0.00025   0.00000   0.00058   0.00059   0.54822
   D15       -0.53389  -0.00034   0.00000  -0.00147  -0.00148  -0.53537
         Item               Value     Threshold  Converged?
 Maximum Force            0.024831     0.000450     NO 
 RMS     Force            0.006203     0.000300     NO 
 Maximum Displacement     0.047016     0.001800     NO 
 RMS     Displacement     0.014220     0.001200     NO 
 Predicted change in Energy=-1.543761D-03
 GradGradGradGradGradGradGradGradGradGradGradGradGradGradGradGradGradGrad

                          Input orientation:                          
 ---------------------------------------------------------------------
 Center     Atomic      Atomic             Coordinates (Angstroms)
 Number     Number       Type             X           Y           Z
 ---------------------------------------------------------------------
      1          6           0        0.119464   -0.910478   -0.001554
      2          1           0        0.485946   -1.938401   -0.001838
      3          1           0        0.486353   -0.395700    0.888373
      4          1           0        0.486618   -0.395896   -0.891704
      5         17           0        3.637033   -0.788044   -0.047518
      6          9           0       -1.254285   -0.911251   -0.001278
 ---------------------------------------------------------------------
                    Distance matrix (angstroms):
                    1          2          3          4          5
     1  C    0.000000
     2  H    1.091299   0.000000
     3  H    1.091593   1.781124   0.000000
     4  H    1.091771   1.780782   1.780078   0.000000
     5  Cl   3.519999   3.354810   3.310077   3.285049   0.000000
     6  F    1.373749   2.020753   2.021656   2.022175   4.893088
                    6
     6  F    0.000000
 Stoichiometry    CH3ClF(1-)
 Framework group  C1[X(CH3ClF)]
 Deg. of freedom    12
 Full point group                 C1      NOp   1
 Largest Abelian subgroup         C1      NOp   1
 Largest concise Abelian subgroup C1      NOp   1
                         Standard orientation:                         
 ---------------------------------------------------------------------
 Center     Atomic      Atomic             Coordinates (Angstroms)
 Number     Number       Type             X           Y           Z
 ---------------------------------------------------------------------
      1          6           0        1.388002    0.021695    0.002278
      2          1           0        1.050489    1.026847   -0.255963
      3          1           0        1.016213   -0.241183    0.994368
      4          1           0        0.997228   -0.689333   -0.728269
      5         17           0       -2.131905   -0.003589   -0.000377
      6          9           0        2.761160   -0.018387   -0.001932
 ---------------------------------------------------------------------
 Rotational constants (GHZ):    157.4589511      1.5242041      1.5241340
 Standard basis: VSTO-6G (5D, 7F)
 There are    21 symmetry adapted cartesian basis functions of A   symmetry.
 There are    20 symmetry adapted basis functions of A   symmetry.
    20 basis functions,   126 primitive gaussians,    21 cartesian basis functions
    11 alpha electrons       11 beta electrons
       nuclear repulsion energy        63.8824550881 Hartrees.
 Integral buffers will be    131072 words long.
 Regular integral format.
 Two-electron integral symmetry is turned off.
 Do NDO integrals.
 One-electron integrals computed using PRISM.
 NBasis=    20 RedAO= F EigKep=  0.00D+00  NBF=    20
 NBsUse=    20 1.00D-04 EigRej=  0.00D+00 NBFU=    20
 Initial guess from the checkpoint file:  "/scratch/1715567.1.multiway.q/Gau-186785.chk"
 B after Tr=     0.000000    0.000000    0.000000
         Rot=    0.998645   -0.052045    0.000001   -0.000022 Ang=  -5.97 deg.
 Overlap will be assumed to be unity.
 Keep J ints in memory in canonical form, NReq=1875445.
 Requested convergence on RMS density matrix=1.00D-08 within 128 cycles.
 Requested convergence on MAX density matrix=1.00D-06.
 Requested convergence on             energy=1.00D-06.
 No special actions if energy rises.
 SCF Done:  E(RPM6) = -0.192393292263     A.U. after   11 cycles
            NFock= 10  Conv=0.21D-08     -V/T= 0.9851
 Calling FoFJK, ICntrl=      2127 FMM=F ISym2X=0 I1Cent= 0 IOpClX= 0 NMat=1 NMatS=1 NMatT=0.
 ***** Axes restored to original set *****
 -------------------------------------------------------------------
 Center     Atomic                   Forces (Hartrees/Bohr)
 Number     Number              X              Y              Z
 -------------------------------------------------------------------
      1        6           0.003977745   -0.000091110    0.000033532
      2        1          -0.000259428   -0.003009344   -0.000027544
      3        1          -0.000173301    0.001607374    0.002620186
      4        1          -0.000119720    0.001601663   -0.002664993
      5       17          -0.003152035   -0.000100981    0.000036348
      6        9          -0.000273261   -0.000007601    0.000002471
 -------------------------------------------------------------------
 Cartesian Forces:  Max     0.003977745 RMS     0.001734272

 GradGradGradGradGradGradGradGradGradGradGradGradGradGradGradGradGradGrad
 Berny optimization.
 Using GEDIIS/GDIIS optimizer.
 FormGI is forming the generalized inverse of G from B-inverse, IUseBI=4.
 Internal  Forces:  Max     0.002464822 RMS     0.000911282
 Search for a local minimum.
 Step number   2 out of a maximum of   45 on scan point     1 out of    21
 All quantities printed in internal units (Hartrees-Bohrs-Radians)
 Mixed Optimization -- En-DIIS/RFO-DIIS
 Update second derivatives using D2CorX and points    1    2
 DE= -1.68D-03 DEPred=-1.54D-03 R= 1.09D+00
 TightC=F SS=  1.41D+00  RLast= 8.77D-02 DXNew= 5.0454D-01 2.6316D-01
 Trust test= 1.09D+00 RLast= 8.77D-02 DXMaxT set to 3.00D-01
 ITU=  1  0
 Use linear search instead of GDIIS.
     Eigenvalues ---    0.03105   0.03306   0.06224   0.07150   0.07165
     Eigenvalues ---    0.09492   0.09574   0.30171   0.32416   0.32455
     Eigenvalues ---    0.572061000.000001000.000001000.000001000.00000
     Eigenvalues --- 1000.000001000.000001000.000001000.000001000.00000
     Eigenvalues --- 1000.000001000.000001000.000001000.000001000.00000
     Eigenvalues --- 1000.000001000.000001000.000001000.000001000.00000
     Eigenvalues --- 1000.000001000.000001000.000001000.000001000.00000
 RFO step:  Lambda=-5.97656499D-05 EMin= 3.10469442D-02
 Quartic linear search produced a step of  0.13023.
 Iteration  1 RMS(Cart)=  0.00331399 RMS(Int)=  0.00001320
 Iteration  2 RMS(Cart)=  0.00000507 RMS(Int)=  0.00000941
 Iteration  3 RMS(Cart)=  0.00000000 RMS(Int)=  0.00000941
 Iteration  1 RMS(Cart)=  0.00000132 RMS(Int)=  0.00000334
 Iteration  2 RMS(Cart)=  0.00000082 RMS(Int)=  0.00000371
 Variable       Old X    -DE/DX   Delta X   Delta X   Delta X     New X
                                 (Linear)    (Quad)   (Total)
    R1        2.06226   0.00240   0.00524   0.00331   0.00856   2.07082
    R2        2.06281   0.00244   0.00531   0.00355   0.00887   2.07168
    R3        2.06315   0.00246   0.00536   0.00369   0.00905   2.07220
    R4        6.65183  -0.00148   0.00000   0.00000  -0.00001   6.65183
    R5        2.59601   0.00027   0.00584  -0.00422   0.00162   2.59763
    R6        6.33967  -0.00038  -0.00070   0.00911   0.00843   6.34810
    R7        6.25514  -0.00048  -0.00097   0.00839   0.00744   6.26258
    R8        6.20784  -0.00053  -0.00113   0.00788   0.00676   6.21460
    A1        1.90873   0.00052  -0.00025   0.00485   0.00458   1.91331
    A2        1.90796   0.00050  -0.00035   0.00434   0.00397   1.91193
    A3        1.91271  -0.00049   0.00027  -0.00419  -0.00391   1.90880
    A4        1.90646   0.00047  -0.00054   0.00337   0.00280   1.90927
    A5        1.91368  -0.00049   0.00040  -0.00416  -0.00375   1.90993
    A6        1.91423  -0.00049   0.00047  -0.00415  -0.00367   1.91056
    A7        1.56324  -0.00094  -0.00047  -0.00492  -0.00538   1.55787
    A8        1.60432  -0.00096  -0.00046  -0.00474  -0.00519   1.59913
    A9        1.62755  -0.00097  -0.00045  -0.00459  -0.00503   1.62252
   A10        0.54089   0.00079   0.00144   0.00110   0.00254   0.54343
   A11        0.54264   0.00080   0.00144   0.00104   0.00248   0.54512
   A12        0.54654   0.00081   0.00144   0.00092   0.00235   0.54890
    D1       -1.05686  -0.00058   0.00053  -0.00479  -0.00427  -1.06113
    D2        1.02966   0.00060  -0.00050   0.00486   0.00437   1.03404
    D3        3.12809   0.00000   0.00003  -0.00011  -0.00008   3.12801
    D4        1.08233   0.00058  -0.00051   0.00490   0.00440   1.08673
    D5       -1.00511  -0.00063   0.00039  -0.00534  -0.00495  -1.01006
    D6       -3.10321  -0.00001  -0.00009   0.00020   0.00011  -3.10310
    D7       -1.06899  -0.00059   0.00047  -0.00509  -0.00463  -1.07362
    D8        1.01893   0.00062  -0.00038   0.00546   0.00508   1.02401
    D9        3.11670   0.00001   0.00006  -0.00009  -0.00003   3.11667
   D10        0.55411   0.00006   0.00007  -0.00028  -0.00021   0.55390
   D11       -0.54752  -0.00009  -0.00013  -0.00011  -0.00025  -0.54777
   D12       -0.55427  -0.00002  -0.00004   0.00048   0.00044  -0.55384
   D13        0.53485   0.00011   0.00021   0.00072   0.00093   0.53578
   D14        0.54822   0.00003   0.00008  -0.00018  -0.00010   0.54812
   D15       -0.53537  -0.00009  -0.00019  -0.00062  -0.00082  -0.53619
         Item               Value     Threshold  Converged?
 Maximum Force            0.002594     0.000450     NO 
 RMS     Force            0.000826     0.000300     NO 
 Maximum Displacement     0.011253     0.001800     NO 
 RMS     Displacement     0.003313     0.001200     NO 
 Predicted change in Energy=-5.062487D-05
 GradGradGradGradGradGradGradGradGradGradGradGradGradGradGradGradGradGrad

                          Input orientation:                          
 ---------------------------------------------------------------------
 Center     Atomic      Atomic             Coordinates (Angstroms)
 Number     Number       Type             X           Y           Z
 ---------------------------------------------------------------------
      1          6           0        0.120776   -0.910717   -0.001459
      2          1           0        0.484687   -1.944355   -0.001966
      3          1           0        0.485350   -0.392455    0.893154
      4          1           0        0.485819   -0.392825   -0.896434
      5         17           0        3.638329   -0.787998   -0.047566
      6          9           0       -1.253832   -0.911418   -0.001249
 ---------------------------------------------------------------------
                    Distance matrix (angstroms):
                    1          2          3          4          5
     1  C    0.000000
     2  H    1.095828   0.000000
     3  H    1.096286   1.791545   0.000000
     4  H    1.096562   1.790899   1.789588   0.000000
     5  Cl   3.519995   3.359271   3.314013   3.288626   0.000000
     6  F    1.374608   2.022228   2.023372   2.024025   4.893937
                    6
     6  F    0.000000
 Stoichiometry    CH3ClF(1-)
 Framework group  C1[X(CH3ClF)]
 Deg. of freedom    12
 Full point group                 C1      NOp   1
 Largest Abelian subgroup         C1      NOp   1
 Largest concise Abelian subgroup C1      NOp   1
                         Standard orientation:                         
 ---------------------------------------------------------------------
 Center     Atomic      Atomic             Coordinates (Angstroms)
 Number     Number       Type             X           Y           Z
 ---------------------------------------------------------------------
      1          6           0        1.387581    0.021630    0.003814
      2          1           0        1.052846    1.047697   -0.185870
      3          1           0        1.018051   -0.311560    0.980683
      4          1           0        0.998731   -0.641577   -0.778107
      5         17           0       -2.132321   -0.003538   -0.000625
      6          9           0        2.761593   -0.018244   -0.003218
 ---------------------------------------------------------------------
 Rotational constants (GHZ):    155.7097883      1.5236424      1.5235666
 Standard basis: VSTO-6G (5D, 7F)
 There are    21 symmetry adapted cartesian basis functions of A   symmetry.
 There are    20 symmetry adapted basis functions of A   symmetry.
    20 basis functions,   126 primitive gaussians,    21 cartesian basis functions
    11 alpha electrons       11 beta electrons
       nuclear repulsion energy        63.8514340432 Hartrees.
 Integral buffers will be    131072 words long.
 Regular integral format.
 Two-electron integral symmetry is turned off.
 Do NDO integrals.
 One-electron integrals computed using PRISM.
 NBasis=    20 RedAO= F EigKep=  0.00D+00  NBF=    20
 NBsUse=    20 1.00D-04 EigRej=  0.00D+00 NBFU=    20
 Initial guess from the checkpoint file:  "/scratch/1715567.1.multiway.q/Gau-186785.chk"
 B after Tr=     0.000000    0.000000    0.000000
         Rot=    0.999406   -0.034459   -0.000001    0.000005 Ang=  -3.95 deg.
 Overlap will be assumed to be unity.
 Keep J ints in memory in canonical form, NReq=1875445.
 Requested convergence on RMS density matrix=1.00D-08 within 128 cycles.
 Requested convergence on MAX density matrix=1.00D-06.
 Requested convergence on             energy=1.00D-06.
 No special actions if energy rises.
 SCF Done:  E(RPM6) = -0.192456091366     A.U. after    9 cycles
            NFock=  8  Conv=0.44D-08     -V/T= 0.9851
 Calling FoFJK, ICntrl=      2127 FMM=F ISym2X=0 I1Cent= 0 IOpClX= 0 NMat=1 NMatS=1 NMatT=0.
 ***** Axes restored to original set *****
 -------------------------------------------------------------------
 Center     Atomic                   Forces (Hartrees/Bohr)
 Number     Number              X              Y              Z
 -------------------------------------------------------------------
      1        6           0.004656577    0.000048196   -0.000019427
      2        1          -0.000663587   -0.000418738   -0.000004562
      3        1          -0.000623534    0.000232606    0.000374873
      4        1          -0.000595410    0.000233432   -0.000385059
      5       17          -0.003131342   -0.000097916    0.000035234
      6        9           0.000357297    0.000002420   -0.000001058
 -------------------------------------------------------------------
 Cartesian Forces:  Max     0.004656577 RMS     0.001361915

 GradGradGradGradGradGradGradGradGradGradGradGradGradGradGradGradGradGrad
 Berny optimization.
 Using GEDIIS/GDIIS optimizer.
 FormGI is forming the generalized inverse of G from B-inverse, IUseBI=4.
 Internal  Forces:  Max     0.001486638 RMS     0.000439759
 Search for a local minimum.
 Step number   3 out of a maximum of   45 on scan point     1 out of    21
 All quantities printed in internal units (Hartrees-Bohrs-Radians)
 Mixed Optimization -- En-DIIS/RFO-DIIS
 Swapping is turned off.
 Update second derivatives using D2CorX and points    1    2    3
 DE= -6.28D-05 DEPred=-5.06D-05 R= 1.24D+00
 TightC=F SS=  1.41D+00  RLast= 2.69D-02 DXNew= 5.0454D-01 8.0814D-02
 Trust test= 1.24D+00 RLast= 2.69D-02 DXMaxT set to 3.00D-01
 ITU=  1  1  0
     Eigenvalues ---    0.03103   0.03298   0.04605   0.07184   0.07192
     Eigenvalues ---    0.09485   0.09564   0.31774   0.32490   0.32637
     Eigenvalues ---    0.581051000.000001000.000001000.000001000.00000
     Eigenvalues --- 1000.000001000.000001000.000001000.000001000.00000
     Eigenvalues --- 1000.000001000.000001000.000001000.000001000.00000
     Eigenvalues --- 1000.000001000.000001000.000001000.000001000.00000
     Eigenvalues --- 1000.000001000.000001000.000001000.000001000.00000
 En-DIIS/RFO-DIIS IScMMF=        0 using points:     3    2
 RFO step:  Lambda=-3.78692678D-06.
 DidBck=F Rises=F RFO-DIIS coefs:    1.27276   -0.27276
 Iteration  1 RMS(Cart)=  0.00164002 RMS(Int)=  0.00000832
 Iteration  2 RMS(Cart)=  0.00000254 RMS(Int)=  0.00000781
 Iteration  3 RMS(Cart)=  0.00000000 RMS(Int)=  0.00000781
 Iteration  1 RMS(Cart)=  0.00000103 RMS(Int)=  0.00000261
 Iteration  2 RMS(Cart)=  0.00000064 RMS(Int)=  0.00000290
 Variable       Old X    -DE/DX   Delta X   Delta X   Delta X     New X
                                 (Linear)    (Quad)   (Total)
    R1        2.07082   0.00007   0.00233  -0.00084   0.00150   2.07231
    R2        2.07168   0.00007   0.00242  -0.00075   0.00167   2.07335
    R3        2.07220   0.00007   0.00247  -0.00070   0.00177   2.07397
    R4        6.65183  -0.00149   0.00000   0.00000   0.00000   6.65183
    R5        2.59763  -0.00036   0.00044  -0.00053  -0.00008   2.59755
    R6        6.34810  -0.00051   0.00230   0.00502   0.00732   6.35542
    R7        6.26258  -0.00054   0.00203   0.00456   0.00659   6.26917
    R8        6.21460  -0.00056   0.00184   0.00420   0.00606   6.22066
    A1        1.91331   0.00042   0.00125   0.00230   0.00353   1.91684
    A2        1.91193   0.00042   0.00108   0.00223   0.00329   1.91522
    A3        1.90880  -0.00042  -0.00107  -0.00218  -0.00324   1.90556
    A4        1.90927   0.00042   0.00076   0.00209   0.00283   1.91210
    A5        1.90993  -0.00042  -0.00102  -0.00222  -0.00323   1.90670
    A6        1.91056  -0.00042  -0.00100  -0.00224  -0.00323   1.90733
    A7        1.55787  -0.00052  -0.00147  -0.00229  -0.00374   1.55413
    A8        1.59913  -0.00051  -0.00142  -0.00209  -0.00350   1.59563
    A9        1.62252  -0.00051  -0.00137  -0.00194  -0.00330   1.61922
   A10        0.54343   0.00015   0.00069  -0.00019   0.00050   0.54394
   A11        0.54512   0.00015   0.00068  -0.00018   0.00049   0.54561
   A12        0.54890   0.00015   0.00064  -0.00018   0.00046   0.54936
    D1       -1.06113  -0.00052  -0.00116  -0.00276  -0.00393  -1.06506
    D2        1.03404   0.00052   0.00119   0.00260   0.00380   1.03784
    D3        3.12801   0.00000  -0.00002  -0.00011  -0.00013   3.12788
    D4        1.08673   0.00053   0.00120   0.00288   0.00409   1.09082
    D5       -1.01006  -0.00051  -0.00135  -0.00255  -0.00391  -1.01397
    D6       -3.10310   0.00000   0.00003   0.00025   0.00029  -3.10281
    D7       -1.07362  -0.00052  -0.00126  -0.00283  -0.00410  -1.07772
    D8        1.02401   0.00051   0.00139   0.00265   0.00405   1.02806
    D9        3.11667   0.00000  -0.00001  -0.00014  -0.00015   3.11652
   D10        0.55390   0.00001  -0.00006  -0.00004  -0.00010   0.55380
   D11       -0.54777  -0.00002  -0.00007  -0.00003  -0.00010  -0.54786
   D12       -0.55384   0.00000   0.00012   0.00012   0.00024  -0.55360
   D13        0.53578   0.00003   0.00025   0.00008   0.00034   0.53612
   D14        0.54812   0.00000  -0.00003  -0.00009  -0.00012   0.54800
   D15       -0.53619  -0.00002  -0.00022  -0.00005  -0.00027  -0.53645
         Item               Value     Threshold  Converged?
 Maximum Force            0.000357     0.000450     YES
 RMS     Force            0.000163     0.000300     YES
 Maximum Displacement     0.004049     0.001800     NO 
 RMS     Displacement     0.001639     0.001200     NO 
 Predicted change in Energy=-7.975673D-06
 GradGradGradGradGradGradGradGradGradGradGradGradGradGradGradGradGradGrad

                          Input orientation:                          
 ---------------------------------------------------------------------
 Center     Atomic      Atomic             Coordinates (Angstroms)
 Number     Number       Type             X           Y           Z
 ---------------------------------------------------------------------
      1          6           0        0.122301   -0.910872   -0.001394
      2          1           0        0.482930   -1.946498   -0.001971
      3          1           0        0.483833   -0.391421    0.894846
      4          1           0        0.484486   -0.391851   -0.898024
      5         17           0        3.639840   -0.787800   -0.047666
      6          9           0       -1.252263   -0.911326   -0.001310
 ---------------------------------------------------------------------
                    Distance matrix (angstroms):
                    1          2          3          4          5
     1  C    0.000000
     2  H    1.096620   0.000000
     3  H    1.097169   1.795145   0.000000
     4  H    1.097500   1.794391   1.792869   0.000000
     5  Cl   3.519996   3.363146   3.317503   3.291830   0.000000
     6  F    1.374564   2.020514   2.021738   2.022436   4.893882
                    6
     6  F    0.000000
 Stoichiometry    CH3ClF(1-)
 Framework group  C1[X(CH3ClF)]
 Deg. of freedom    12
 Full point group                 C1      NOp   1
 Largest Abelian subgroup         C1      NOp   1
 Largest concise Abelian subgroup C1      NOp   1
                         Standard orientation:                         
 ---------------------------------------------------------------------
 Center     Atomic      Atomic             Coordinates (Angstroms)
 Number     Number       Type             X           Y           Z
 ---------------------------------------------------------------------
      1          6           0        1.387333    0.021761    0.004270
      2          1           0        1.055979    1.053011   -0.166907
      3          1           0        1.020822   -0.330332    0.976628
      4          1           0        1.001251   -0.628394   -0.791183
      5         17           0       -2.132568   -0.003536   -0.000695
      6          9           0        2.761290   -0.018304   -0.003593
 ---------------------------------------------------------------------
 Rotational constants (GHZ):    155.1045642      1.5235517      1.5234731
 Standard basis: VSTO-6G (5D, 7F)
 There are    21 symmetry adapted cartesian basis functions of A   symmetry.
 There are    20 symmetry adapted basis functions of A   symmetry.
    20 basis functions,   126 primitive gaussians,    21 cartesian basis functions
    11 alpha electrons       11 beta electrons
       nuclear repulsion energy        63.8476061541 Hartrees.
 Integral buffers will be    131072 words long.
 Regular integral format.
 Two-electron integral symmetry is turned off.
 Do NDO integrals.
 One-electron integrals computed using PRISM.
 NBasis=    20 RedAO= F EigKep=  0.00D+00  NBF=    20
 NBsUse=    20 1.00D-04 EigRej=  0.00D+00 NBFU=    20
 Initial guess from the checkpoint file:  "/scratch/1715567.1.multiway.q/Gau-186785.chk"
 B after Tr=     0.000000    0.000000    0.000000
         Rot=    0.999958   -0.009206   -0.000001    0.000005 Ang=  -1.05 deg.
 Overlap will be assumed to be unity.
 Keep J ints in memory in canonical form, NReq=1875445.
 Requested convergence on RMS density matrix=1.00D-08 within 128 cycles.
 Requested convergence on MAX density matrix=1.00D-06.
 Requested convergence on             energy=1.00D-06.
 No special actions if energy rises.
 SCF Done:  E(RPM6) = -0.192466697670     A.U. after   10 cycles
            NFock=  9  Conv=0.38D-08     -V/T= 0.9851
 Calling FoFJK, ICntrl=      2127 FMM=F ISym2X=0 I1Cent= 0 IOpClX= 0 NMat=1 NMatS=1 NMatT=0.
 ***** Axes restored to original set *****
 -------------------------------------------------------------------
 Center     Atomic                   Forces (Hartrees/Bohr)
 Number     Number              X              Y              Z
 -------------------------------------------------------------------
      1        6           0.004481192    0.000121218   -0.000046972
      2        1          -0.000438974    0.000167005    0.000004273
      3        1          -0.000418152   -0.000097053   -0.000144515
      4        1          -0.000400315   -0.000097044    0.000153405
      5       17          -0.003112039   -0.000096624    0.000034756
      6        9          -0.000111713    0.000002499   -0.000000948
 -------------------------------------------------------------------
 Cartesian Forces:  Max     0.004481192 RMS     0.001300102

 GradGradGradGradGradGradGradGradGradGradGradGradGradGradGradGradGradGrad
 Berny optimization.
 Using GEDIIS/GDIIS optimizer.
 FormGI is forming the generalized inverse of G from B-inverse, IUseBI=4.
 Internal  Forces:  Max     0.001343171 RMS     0.000385806
 Search for a local minimum.
 Step number   4 out of a maximum of   45 on scan point     1 out of    21
 All quantities printed in internal units (Hartrees-Bohrs-Radians)
 Mixed Optimization -- En-DIIS/RFO-DIIS
 Swapping is turned off.
 Update second derivatives using D2CorX and points    1    2    3    4
 DE= -1.06D-05 DEPred=-7.98D-06 R= 1.33D+00
 TightC=F SS=  1.41D+00  RLast= 1.84D-02 DXNew= 5.0454D-01 5.5160D-02
 Trust test= 1.33D+00 RLast= 1.84D-02 DXMaxT set to 3.00D-01
 ITU=  1  1  1  0
     Eigenvalues ---    0.02587   0.03126   0.03311   0.07212   0.07219
     Eigenvalues ---    0.09490   0.09568   0.32465   0.32512   0.37513
     Eigenvalues ---    0.588731000.000001000.000001000.000001000.00000
     Eigenvalues --- 1000.000001000.000001000.000001000.000001000.00000
     Eigenvalues --- 1000.000001000.000001000.000001000.000001000.00000
     Eigenvalues --- 1000.000001000.000001000.000001000.000001000.00000
     Eigenvalues --- 1000.000001000.000001000.000001000.000001000.00000
 En-DIIS/RFO-DIIS IScMMF=        0 using points:     4    3    2
 RFO step:  Lambda=-1.38699881D-06.
 DidBck=F Rises=F RFO-DIIS coefs:    2.01783   -1.26346    0.24562
 Iteration  1 RMS(Cart)=  0.00119697 RMS(Int)=  0.00000593
 Iteration  2 RMS(Cart)=  0.00000231 RMS(Int)=  0.00000535
 Iteration  3 RMS(Cart)=  0.00000000 RMS(Int)=  0.00000535
 Iteration  1 RMS(Cart)=  0.00000042 RMS(Int)=  0.00000107
 Variable       Old X    -DE/DX   Delta X   Delta X   Delta X     New X
                                 (Linear)    (Quad)   (Total)
    R1        2.07231  -0.00035  -0.00058  -0.00023  -0.00081   2.07150
    R2        2.07335  -0.00037  -0.00048  -0.00025  -0.00073   2.07262
    R3        2.07397  -0.00039  -0.00042  -0.00026  -0.00069   2.07329
    R4        6.65183  -0.00134   0.00000   0.00000   0.00001   6.65184
    R5        2.59755   0.00011  -0.00048   0.00131   0.00082   2.59837
    R6        6.35542  -0.00059   0.00538   0.00122   0.00660   6.36203
    R7        6.26917  -0.00060   0.00489   0.00081   0.00569   6.27487
    R8        6.22066  -0.00061   0.00450   0.00049   0.00498   6.22564
    A1        1.91684   0.00031   0.00247   0.00031   0.00277   1.91961
    A2        1.91522   0.00032   0.00237   0.00038   0.00274   1.91796
    A3        1.90556  -0.00032  -0.00234  -0.00040  -0.00275   1.90281
    A4        1.91210   0.00033   0.00219   0.00051   0.00270   1.91480
    A5        1.90670  -0.00032  -0.00237  -0.00040  -0.00277   1.90393
    A6        1.90733  -0.00032  -0.00239  -0.00040  -0.00278   1.90454
    A7        1.55413  -0.00034  -0.00249  -0.00055  -0.00304   1.55109
    A8        1.59563  -0.00033  -0.00229  -0.00035  -0.00264   1.59299
    A9        1.61922  -0.00032  -0.00212  -0.00019  -0.00231   1.61690
   A10        0.54394   0.00002  -0.00011  -0.00010  -0.00021   0.54372
   A11        0.54561   0.00002  -0.00011  -0.00007  -0.00019   0.54542
   A12        0.54936   0.00002  -0.00011  -0.00003  -0.00014   0.54922
    D1       -1.06506  -0.00041  -0.00295  -0.00064  -0.00361  -1.06867
    D2        1.03784   0.00039   0.00280   0.00042   0.00323   1.04107
    D3        3.12788   0.00000  -0.00012  -0.00009  -0.00020   3.12767
    D4        1.09082   0.00041   0.00308   0.00077   0.00386   1.09468
    D5       -1.01397  -0.00038  -0.00276  -0.00021  -0.00298  -1.01695
    D6       -3.10281   0.00001   0.00026   0.00021   0.00048  -3.10234
    D7       -1.07772  -0.00040  -0.00303  -0.00064  -0.00368  -1.08139
    D8        1.02806   0.00038   0.00287   0.00030   0.00318   1.03124
    D9        3.11652   0.00000  -0.00015  -0.00013  -0.00027   3.11624
   D10        0.55380   0.00000  -0.00005   0.00009   0.00005   0.55385
   D11       -0.54786   0.00000  -0.00004  -0.00002  -0.00005  -0.54791
   D12       -0.55360   0.00000   0.00014  -0.00009   0.00005  -0.55355
   D13        0.53612   0.00000   0.00012  -0.00013  -0.00001   0.53611
   D14        0.54800   0.00000  -0.00010   0.00001  -0.00008   0.54792
   D15       -0.53645   0.00000  -0.00007   0.00012   0.00005  -0.53640
         Item               Value     Threshold  Converged?
 Maximum Force            0.000288     0.000450     YES
 RMS     Force            0.000111     0.000300     YES
 Maximum Displacement     0.003266     0.001800     NO 
 RMS     Displacement     0.001197     0.001200     YES
 Predicted change in Energy=-2.510900D-06
 GradGradGradGradGradGradGradGradGradGradGradGradGradGradGradGradGradGrad

                          Input orientation:                          
 ---------------------------------------------------------------------
 Center     Atomic      Atomic             Coordinates (Angstroms)
 Number     Number       Type             X           Y           Z
 ---------------------------------------------------------------------
      1          6           0        0.123874   -0.910986   -0.001342
      2          1           0        0.481202   -1.947304   -0.001883
      3          1           0        0.482436   -0.391298    0.895480
      4          1           0        0.483342   -0.391724   -0.898482
      5         17           0        3.641400   -0.787436   -0.047836
      6          9           0       -1.251126   -0.911021   -0.001457
 ---------------------------------------------------------------------
                    Distance matrix (angstroms):
                    1          2          3          4          5
     1  C    0.000000
     2  H    1.096193   0.000000
     3  H    1.096783   1.796223   0.000000
     4  H    1.097137   1.795473   1.793962   0.000000
     5  Cl   3.520003   3.366639   3.320516   3.294468   0.000000
     6  F    1.375000   2.018624   2.019863   2.020570   4.894307
                    6
     6  F    0.000000
 Stoichiometry    CH3ClF(1-)
 Framework group  C1[X(CH3ClF)]
 Deg. of freedom    12
 Full point group                 C1      NOp   1
 Largest Abelian subgroup         C1      NOp   1
 Largest concise Abelian subgroup C1      NOp   1
                         Standard orientation:                         
 ---------------------------------------------------------------------
 Center     Atomic      Atomic             Coordinates (Angstroms)
 Number     Number       Type             X           Y           Z
 ---------------------------------------------------------------------
      1          6           0        1.386970    0.022078    0.004251
      2          1           0        1.058983    1.053148   -0.171701
      3          1           0        1.023423   -0.325801    0.978800
      4          1           0        1.003550   -0.632066   -0.788713
      5         17           0       -2.132935   -0.003577   -0.000690
      6          9           0        2.761347   -0.018549   -0.003573
 ---------------------------------------------------------------------
 Rotational constants (GHZ):    154.9011018      1.5232464      1.5231664
 Standard basis: VSTO-6G (5D, 7F)
 There are    21 symmetry adapted cartesian basis functions of A   symmetry.
 There are    20 symmetry adapted basis functions of A   symmetry.
    20 basis functions,   126 primitive gaussians,    21 cartesian basis functions
    11 alpha electrons       11 beta electrons
       nuclear repulsion energy        63.8472754051 Hartrees.
 Integral buffers will be    131072 words long.
 Regular integral format.
 Two-electron integral symmetry is turned off.
 Do NDO integrals.
 One-electron integrals computed using PRISM.
 NBasis=    20 RedAO= F EigKep=  0.00D+00  NBF=    20
 NBsUse=    20 1.00D-04 EigRej=  0.00D+00 NBFU=    20
 Initial guess from the checkpoint file:  "/scratch/1715567.1.multiway.q/Gau-186785.chk"
 B after Tr=     0.000000    0.000000    0.000000
         Rot=    0.999997    0.002268   -0.000001    0.000005 Ang=   0.26 deg.
 Overlap will be assumed to be unity.
 Keep J ints in memory in canonical form, NReq=1875445.
 Requested convergence on RMS density matrix=1.00D-08 within 128 cycles.
 Requested convergence on MAX density matrix=1.00D-06.
 Requested convergence on             energy=1.00D-06.
 No special actions if energy rises.
 SCF Done:  E(RPM6) = -0.192470537392     A.U. after   10 cycles
            NFock=  9  Conv=0.31D-08     -V/T= 0.9851
 Calling FoFJK, ICntrl=      2127 FMM=F ISym2X=0 I1Cent= 0 IOpClX= 0 NMat=1 NMatS=1 NMatT=0.
 ***** Axes restored to original set *****
 -------------------------------------------------------------------
 Center     Atomic                   Forces (Hartrees/Bohr)
 Number     Number              X              Y              Z
 -------------------------------------------------------------------
      1        6           0.003577899    0.000144983   -0.000055955
      2        1          -0.000092850    0.000098513    0.000004554
      3        1          -0.000076456   -0.000071650   -0.000099258
      4        1          -0.000060711   -0.000075951    0.000116185
      5       17          -0.003098160   -0.000096447    0.000034669
      6        9          -0.000249721    0.000000551   -0.000000196
 -------------------------------------------------------------------
 Cartesian Forces:  Max     0.003577899 RMS     0.001119501

 GradGradGradGradGradGradGradGradGradGradGradGradGradGradGradGradGradGrad
 Berny optimization.
 Using GEDIIS/GDIIS optimizer.
 FormGI is forming the generalized inverse of G from B-inverse, IUseBI=4.
 Internal  Forces:  Max     0.001191425 RMS     0.000333361
 Search for a local minimum.
 Step number   5 out of a maximum of   45 on scan point     1 out of    21
 All quantities printed in internal units (Hartrees-Bohrs-Radians)
 Mixed Optimization -- En-DIIS/RFO-DIIS
 Swapping is turned off.
 Update second derivatives using D2CorX and points    1    2    3    4    5
 DE= -3.84D-06 DEPred=-2.51D-06 R= 1.53D+00
 TightC=F SS=  1.41D+00  RLast= 1.55D-02 DXNew= 5.0454D-01 4.6616D-02
 Trust test= 1.53D+00 RLast= 1.55D-02 DXMaxT set to 3.00D-01
 ITU=  1  1  1  1  0
     Eigenvalues ---    0.02123   0.03162   0.03347   0.07235   0.07241
     Eigenvalues ---    0.09495   0.09575   0.29653   0.32492   0.32524
     Eigenvalues ---    0.644721000.000001000.000001000.000001000.00000
     Eigenvalues --- 1000.000001000.000001000.000001000.000001000.00000
     Eigenvalues --- 1000.000001000.000001000.000001000.000001000.00000
     Eigenvalues --- 1000.000001000.000001000.000001000.000001000.00000
     Eigenvalues --- 1000.000001000.000001000.000001000.000001000.00000
 En-DIIS/RFO-DIIS IScMMF=        0 using points:     5    4    3    2
 RFO step:  Lambda=-3.12739836D-07.
 DidBck=F Rises=F RFO-DIIS coefs:    1.73759   -1.34046    0.71279   -0.10992
 Iteration  1 RMS(Cart)=  0.00030963 RMS(Int)=  0.00000271
 Iteration  2 RMS(Cart)=  0.00000014 RMS(Int)=  0.00000270
 Iteration  1 RMS(Cart)=  0.00000038 RMS(Int)=  0.00000097
 Variable       Old X    -DE/DX   Delta X   Delta X   Delta X     New X
                                 (Linear)    (Quad)   (Total)
    R1        2.07150  -0.00017  -0.00056   0.00002  -0.00054   2.07097
    R2        2.07262  -0.00021  -0.00057   0.00000  -0.00057   2.07205
    R3        2.07329  -0.00023  -0.00058  -0.00001  -0.00059   2.07270
    R4        6.65184  -0.00119   0.00001   0.00000   0.00000   6.65184
    R5        2.59837   0.00025   0.00084   0.00000   0.00084   2.59921
    R6        6.36203  -0.00064   0.00138   0.00036   0.00174   6.36377
    R7        6.27487  -0.00065   0.00104  -0.00002   0.00102   6.27589
    R8        6.22564  -0.00066   0.00077  -0.00033   0.00044   6.22608
    A1        1.91961   0.00021   0.00042  -0.00002   0.00040   1.92001
    A2        1.91796   0.00022   0.00047  -0.00001   0.00047   1.91843
    A3        1.90281  -0.00023  -0.00050  -0.00001  -0.00051   1.90230
    A4        1.91480   0.00024   0.00059   0.00003   0.00063   1.91542
    A5        1.90393  -0.00023  -0.00051   0.00000  -0.00051   1.90342
    A6        1.90454  -0.00023  -0.00051   0.00000  -0.00051   1.90404
    A7        1.55109  -0.00027  -0.00058  -0.00018  -0.00076   1.55033
    A8        1.59299  -0.00026  -0.00041   0.00001  -0.00040   1.59259
    A9        1.61690  -0.00025  -0.00027   0.00016  -0.00011   1.61680
   A10        0.54372   0.00005  -0.00018  -0.00002  -0.00020   0.54353
   A11        0.54542   0.00005  -0.00016  -0.00001  -0.00016   0.54526
   A12        0.54922   0.00005  -0.00012   0.00002  -0.00010   0.54912
    D1       -1.06867  -0.00030  -0.00076  -0.00010  -0.00086  -1.06952
    D2        1.04107   0.00028   0.00057  -0.00008   0.00048   1.04154
    D3        3.12767   0.00000  -0.00008  -0.00008  -0.00016   3.12751
    D4        1.09468   0.00030   0.00087   0.00022   0.00108   1.09576
    D5       -1.01695  -0.00027  -0.00039   0.00022  -0.00016  -1.01711
    D6       -3.10234   0.00000   0.00019   0.00020   0.00039  -3.10195
    D7       -1.08139  -0.00029  -0.00075  -0.00012  -0.00087  -1.08226
    D8        1.03124   0.00027   0.00046  -0.00013   0.00033   1.03156
    D9        3.11624   0.00000  -0.00011  -0.00011  -0.00023   3.11602
   D10        0.55385   0.00001   0.00007   0.00006   0.00013   0.55398
   D11       -0.54791   0.00000  -0.00001  -0.00001  -0.00001  -0.54793
   D12       -0.55355  -0.00001  -0.00006  -0.00007  -0.00013  -0.55367
   D13        0.53611   0.00000  -0.00011  -0.00008  -0.00019   0.53592
   D14        0.54792   0.00001   0.00000   0.00002   0.00002   0.54794
   D15       -0.53640   0.00000   0.00011   0.00007   0.00018  -0.53622
         Item               Value     Threshold  Converged?
 Maximum Force            0.000250     0.000450     YES
 RMS     Force            0.000059     0.000300     YES
 Maximum Displacement     0.000911     0.001800     YES
 RMS     Displacement     0.000310     0.001200     YES
 Predicted change in Energy=-1.835833D-07
 Optimization completed.
    -- Stationary point found.
                           ----------------------------
                           !   Optimized Parameters   !
                           ! (Angstroms and Degrees)  !
 --------------------------                            --------------------------
 ! Name  Definition              Value          Derivative Info.                !
 --------------------------------------------------------------------------------
 ! R1    R(1,2)                  1.0962         -DE/DX =   -0.0002              !
 ! R2    R(1,3)                  1.0968         -DE/DX =   -0.0002              !
 ! R3    R(1,4)                  1.0971         -DE/DX =   -0.0002              !
 ! R4    R(1,5)                  3.52           -DE/DX =   -0.0012              !
 ! R5    R(1,6)                  1.375          -DE/DX =    0.0002              !
 ! R6    R(2,5)                  3.3666         -DE/DX =   -0.0006              !
 ! R7    R(3,5)                  3.3205         -DE/DX =   -0.0007              !
 ! R8    R(4,5)                  3.2945         -DE/DX =   -0.0007              !
 ! A1    A(2,1,3)              109.9857         -DE/DX =    0.0002              !
 ! A2    A(2,1,4)              109.891          -DE/DX =    0.0002              !
 ! A3    A(2,1,6)              109.023          -DE/DX =   -0.0002              !
 ! A4    A(3,1,4)              109.7098         -DE/DX =    0.0002              !
 ! A5    A(3,1,6)              109.0869         -DE/DX =   -0.0002              !
 ! A6    A(4,1,6)              109.1223         -DE/DX =   -0.0002              !
 ! A7    A(1,2,5)               88.8707         -DE/DX =   -0.0003              !
 ! A8    A(1,3,5)               91.2718         -DE/DX =   -0.0003              !
 ! A9    A(1,4,5)               92.6418         -DE/DX =   -0.0002              !
 ! A10   A(2,5,3)               31.1531         -DE/DX =    0.0                 !
 ! A11   A(2,5,4)               31.2504         -DE/DX =    0.0                 !
 ! A12   A(3,5,4)               31.4678         -DE/DX =    0.0                 !
 ! D1    D(3,1,2,5)            -61.2301         -DE/DX =   -0.0003              !
 ! D2    D(4,1,2,5)             59.6487         -DE/DX =    0.0003              !
 ! D3    D(6,1,2,5)            179.2024         -DE/DX =    0.0                 !
 ! D4    D(2,1,3,5)             62.7206         -DE/DX =    0.0003              !
 ! D5    D(4,1,3,5)            -58.2671         -DE/DX =   -0.0003              !
 ! D6    D(6,1,3,5)           -177.7509         -DE/DX =    0.0                 !
 ! D7    D(2,1,4,5)            -61.9593         -DE/DX =   -0.0003              !
 ! D8    D(3,1,4,5)             59.0854         -DE/DX =    0.0003              !
 ! D9    D(6,1,4,5)            178.5475         -DE/DX =    0.0                 !
 ! D10   D(1,2,5,3)             31.7332         -DE/DX =    0.0                 !
 ! D11   D(1,2,5,4)            -31.3931         -DE/DX =    0.0                 !
 ! D12   D(1,3,5,2)            -31.716          -DE/DX =    0.0                 !
 ! D13   D(1,3,5,4)             30.7169         -DE/DX =    0.0                 !
 ! D14   D(1,4,5,2)             31.3934         -DE/DX =    0.0                 !
 ! D15   D(1,4,5,3)            -30.7337         -DE/DX =    0.0                 !
 --------------------------------------------------------------------------------
 Iteration  1 RMS(Cart)=  0.00992696 RMS(Int)=  0.02524466
 Iteration  2 RMS(Cart)=  0.00011580 RMS(Int)=  0.02524412
 Iteration  3 RMS(Cart)=  0.00000144 RMS(Int)=  0.02524412
 Iteration  4 RMS(Cart)=  0.00000003 RMS(Int)=  0.02524412
 Iteration  1 RMS(Cart)=  0.00618036 RMS(Int)=  0.01579102
 Iteration  2 RMS(Cart)=  0.00385728 RMS(Int)=  0.01754803
 Iteration  3 RMS(Cart)=  0.00241289 RMS(Int)=  0.02009902
 Iteration  4 RMS(Cart)=  0.00151140 RMS(Int)=  0.02207810
 Iteration  5 RMS(Cart)=  0.00094750 RMS(Int)=  0.02342940
 Iteration  6 RMS(Cart)=  0.00059428 RMS(Int)=  0.02431281
 Iteration  7 RMS(Cart)=  0.00037286 RMS(Int)=  0.02487960
 Iteration  8 RMS(Cart)=  0.00023398 RMS(Int)=  0.02523985
 Iteration  9 RMS(Cart)=  0.00014685 RMS(Int)=  0.02546767
 Iteration 10 RMS(Cart)=  0.00009217 RMS(Int)=  0.02561132
 Iteration 11 RMS(Cart)=  0.00005785 RMS(Int)=  0.02570174
 Iteration 12 RMS(Cart)=  0.00003631 RMS(Int)=  0.02575859
 Iteration 13 RMS(Cart)=  0.00002280 RMS(Int)=  0.02579432
 Iteration 14 RMS(Cart)=  0.00001431 RMS(Int)=  0.02581677
 Iteration 15 RMS(Cart)=  0.00000898 RMS(Int)=  0.02583086
 Iteration 16 RMS(Cart)=  0.00000564 RMS(Int)=  0.02583971
 Iteration 17 RMS(Cart)=  0.00000354 RMS(Int)=  0.02584527
 Iteration 18 RMS(Cart)=  0.00000222 RMS(Int)=  0.02584875
 Iteration 19 RMS(Cart)=  0.00000139 RMS(Int)=  0.02585094
 Iteration 20 RMS(Cart)=  0.00000088 RMS(Int)=  0.02585232
 GradGradGradGradGradGradGradGradGradGradGradGradGradGradGradGradGradGrad

                          Input orientation:                          
 ---------------------------------------------------------------------
 Center     Atomic      Atomic             Coordinates (Angstroms)
 Number     Number       Type             X           Y           Z
 ---------------------------------------------------------------------
      1          6           0        0.159797   -0.909613   -0.001854
      2          1           0        0.479033   -1.954758   -0.001647
      3          1           0        0.479905   -0.388504    0.901570
      4          1           0        0.480670   -0.388969   -0.904026
      5         17           0        3.577368   -0.788862   -0.047333
      6          9           0       -1.215644   -0.909064   -0.002230
 ---------------------------------------------------------------------
                    Distance matrix (angstroms):
                    1          2          3          4          5
     1  C    0.000000
     2  H    1.092812   0.000000
     3  H    1.090963   1.808025   0.000000
     4  H    1.089928   1.807204   1.805596   0.000000
     5  Cl   3.420006   3.310752   3.264196   3.237804   0.000000
     6  F    1.375442   1.991333   1.990660   1.990280   4.794731
                    6
     6  F    0.000000
 Stoichiometry    CH3ClF(1-)
 Framework group  C1[X(CH3ClF)]
 Deg. of freedom    12
 Full point group                 C1      NOp   1
 Largest Abelian subgroup         C1      NOp   1
 Largest concise Abelian subgroup C1      NOp   1
                         Standard orientation:                         
 ---------------------------------------------------------------------
 Center     Atomic      Atomic             Coordinates (Angstroms)
 Number     Number       Type             X           Y           Z
 ---------------------------------------------------------------------
      1          6           0        1.334994    0.022275    0.004397
      2          1           0        1.045247    1.061661   -0.168700
      3          1           0        1.009930   -0.330670    0.984174
      4          1           0        0.990132   -0.632304   -0.795940
      5         17           0       -2.084909   -0.003699   -0.000732
      6          9           0        2.709798   -0.018829   -0.003719
 ---------------------------------------------------------------------
 Rotational constants (GHZ):    152.8786317      1.5913545      1.5912631
 Standard basis: VSTO-6G (5D, 7F)
 There are    21 symmetry adapted cartesian basis functions of A   symmetry.
 There are    20 symmetry adapted basis functions of A   symmetry.
    20 basis functions,   126 primitive gaussians,    21 cartesian basis functions
    11 alpha electrons       11 beta electrons
       nuclear repulsion energy        64.1698133414 Hartrees.
 Integral buffers will be    131072 words long.
 Regular integral format.
 Two-electron integral symmetry is turned off.
 Do NDO integrals.
 One-electron integrals computed using PRISM.
 NBasis=    20 RedAO= F EigKep=  0.00D+00  NBF=    20
 NBsUse=    20 1.00D-04 EigRej=  0.00D+00 NBFU=    20
 Initial guess from the checkpoint file:  "/scratch/1715567.1.multiway.q/Gau-186785.chk"
 B after Tr=     0.000000    0.000000    0.000000
         Rot=    0.999998   -0.001852    0.000003   -0.000018 Ang=  -0.21 deg.
 Overlap will be assumed to be unity.
 Keep J ints in memory in canonical form, NReq=1875445.
 Requested convergence on RMS density matrix=1.00D-08 within 128 cycles.
 Requested convergence on MAX density matrix=1.00D-06.
 Requested convergence on             energy=1.00D-06.
 No special actions if energy rises.
 SCF Done:  E(RPM6) = -0.192570340666     A.U. after   11 cycles
            NFock= 10  Conv=0.81D-08     -V/T= 0.9851
 Calling FoFJK, ICntrl=      2127 FMM=F ISym2X=0 I1Cent= 0 IOpClX= 0 NMat=1 NMatS=1 NMatT=0.
 ***** Axes restored to original set *****
 -------------------------------------------------------------------
 Center     Atomic                   Forces (Hartrees/Bohr)
 Number     Number              X              Y              Z
 -------------------------------------------------------------------
      1        6          -0.004293180   -0.001243676    0.000477096
      2        1           0.004493026   -0.000234360   -0.000036956
      3        1           0.004923404    0.000700727    0.001005120
      4        1           0.005176135    0.000948752   -0.001508050
      5       17          -0.003304592   -0.000110142    0.000040125
      6        9          -0.006994794   -0.000061301    0.000022665
 -------------------------------------------------------------------
 Cartesian Forces:  Max     0.006994794 RMS     0.002944135

 GradGradGradGradGradGradGradGradGradGradGradGradGradGradGradGradGradGrad
 Berny optimization.
 FormGI is forming the generalized inverse of G from B-inverse, IUseBI=4.
 Internal  Forces:  Max     0.006994762 RMS     0.001631281
 Search for a local minimum.
 Step number   1 out of a maximum of   45 on scan point     2 out of    21
 All quantities printed in internal units (Hartrees-Bohrs-Radians)
 Mixed Optimization -- RFO/linear search
 Second derivative matrix not updated -- first step.
 ITU=  0
     Eigenvalues ---    0.02153   0.03193   0.03377   0.07528   0.07553
     Eigenvalues ---    0.09566   0.09677   0.29708   0.32525   0.32592
     Eigenvalues ---    0.644921000.000001000.000001000.000001000.00000
     Eigenvalues --- 1000.000001000.000001000.000001000.000001000.00000
     Eigenvalues --- 1000.000001000.000001000.000001000.000001000.00000
     Eigenvalues --- 1000.000001000.000001000.000001000.000001000.00000
     Eigenvalues --- 1000.000001000.000001000.000001000.000001000.00000
 RFO step:  Lambda=-9.63972535D-04 EMin= 2.15309622D-02
 Linear search not attempted -- first point.
 Iteration  1 RMS(Cart)=  0.01465763 RMS(Int)=  0.00075893
 Iteration  2 RMS(Cart)=  0.00036168 RMS(Int)=  0.00061542
 Iteration  3 RMS(Cart)=  0.00000018 RMS(Int)=  0.00061542
 Iteration  1 RMS(Cart)=  0.00002893 RMS(Int)=  0.00007328
 Iteration  2 RMS(Cart)=  0.00001803 RMS(Int)=  0.00008143
 Iteration  3 RMS(Cart)=  0.00001124 RMS(Int)=  0.00009323
 Iteration  4 RMS(Cart)=  0.00000700 RMS(Int)=  0.00010233
 Iteration  5 RMS(Cart)=  0.00000436 RMS(Int)=  0.00010851
 Iteration  6 RMS(Cart)=  0.00000272 RMS(Int)=  0.00011251
 Iteration  7 RMS(Cart)=  0.00000169 RMS(Int)=  0.00011507
 Iteration  8 RMS(Cart)=  0.00000106 RMS(Int)=  0.00011668
 Iteration  9 RMS(Cart)=  0.00000066 RMS(Int)=  0.00011769
 Variable       Old X    -DE/DX   Delta X   Delta X   Delta X     New X
                                 (Linear)    (Quad)   (Total)
    R1        2.06512   0.00167   0.00000   0.00890   0.00905   2.07417
    R2        2.06162   0.00255   0.00000   0.01152   0.01162   2.07324
    R3        2.05967   0.00305   0.00000   0.01299   0.01306   2.07272
    R4        6.46287   0.00071   0.00000   0.00000   0.00000   6.46287
    R5        2.59921   0.00699   0.00000  -0.00195  -0.00195   2.59726
    R6        6.25642  -0.00130   0.00000  -0.07716  -0.07768   6.17873
    R7        6.16844  -0.00140   0.00000  -0.06771  -0.06826   6.10018
    R8        6.11856  -0.00147   0.00000  -0.06021  -0.06077   6.05779
    A1        1.95083  -0.00088   0.00000  -0.02952  -0.03096   1.91987
    A2        1.95089  -0.00092   0.00000  -0.02999  -0.03134   1.91955
    A3        1.86764   0.00096   0.00000   0.03261   0.03269   1.90034
    A4        1.95077  -0.00099   0.00000  -0.03091  -0.03215   1.91862
    A5        1.86863   0.00104   0.00000   0.03340   0.03348   1.90211
    A6        1.86919   0.00108   0.00000   0.03381   0.03388   1.90307
    A7        1.50734   0.00076   0.00000   0.03550   0.03575   1.54308
    A8        1.54991   0.00065   0.00000   0.03087   0.03109   1.58100
    A9        1.57436   0.00058   0.00000   0.02712   0.02734   1.60169
   A10        0.55698   0.00054   0.00000   0.00382   0.00356   0.56054
   A11        0.55876   0.00061   0.00000   0.00369   0.00344   0.56220
   A12        0.56274   0.00073   0.00000   0.00342   0.00317   0.56591
    D1       -1.11512   0.00137   0.00000   0.04620   0.04508  -1.07004
    D2        1.08633  -0.00136   0.00000  -0.04181  -0.04070   1.04563
    D3        3.12755   0.00002   0.00000   0.00232   0.00233   3.12988
    D4        1.14120  -0.00134   0.00000  -0.04886  -0.04774   1.09346
    D5       -1.06032   0.00135   0.00000   0.03863   0.03754  -1.02277
    D6       -3.10206  -0.00004   0.00000  -0.00547  -0.00548  -3.10754
    D7       -1.12681   0.00133   0.00000   0.04655   0.04545  -1.08136
    D8        1.07468  -0.00134   0.00000  -0.04069  -0.03961   1.03506
    D9        3.11609   0.00003   0.00000   0.00315   0.00316   3.11925
   D10        0.55534   0.00017   0.00000  -0.00025  -0.00031   0.55502
   D11       -0.54896  -0.00024   0.00000  -0.00014  -0.00018  -0.54914
   D12       -0.55527   0.00007   0.00000   0.00005   0.00018  -0.55509
   D13        0.53665   0.00012   0.00000   0.00086   0.00094   0.53759
   D14        0.54935  -0.00013   0.00000   0.00035   0.00027   0.54962
   D15       -0.53709   0.00001   0.00000  -0.00087  -0.00090  -0.53799
         Item               Value     Threshold  Converged?
 Maximum Force            0.006995     0.000450     NO 
 RMS     Force            0.001643     0.000300     NO 
 Maximum Displacement     0.039279     0.001800     NO 
 RMS     Displacement     0.014762     0.001200     NO 
 Predicted change in Energy=-5.017056D-04
 GradGradGradGradGradGradGradGradGradGradGradGradGradGradGradGradGradGrad

                          Input orientation:                          
 ---------------------------------------------------------------------
 Center     Atomic      Atomic             Coordinates (Angstroms)
 Number     Number       Type             X           Y           Z
 ---------------------------------------------------------------------
      1          6           0        0.141319   -0.908845   -0.002242
      2          1           0        0.499818   -1.946250   -0.002675
      3          1           0        0.497801   -0.389008    0.895725
      4          1           0        0.496179   -0.389271   -0.900668
      5         17           0        3.559094   -0.793170   -0.045348
      6          9           0       -1.233083   -0.913225   -0.000311
 ---------------------------------------------------------------------
                    Distance matrix (angstroms):
                    1          2          3          4          5
     1  C    0.000000
     2  H    1.097603   0.000000
     3  H    1.097112   1.797813   0.000000
     4  H    1.096838   1.797385   1.796394   0.000000
     5  Cl   3.420004   3.269646   3.228077   3.205644   0.000000
     6  F    1.374410   2.017447   2.018327   2.018792   4.793892
                    6
     6  F    0.000000
 Stoichiometry    CH3ClF(1-)
 Framework group  C1[X(CH3ClF)]
 Deg. of freedom    12
 Full point group                 C1      NOp   1
 Largest Abelian subgroup         C1      NOp   1
 Largest concise Abelian subgroup C1      NOp   1
                         Standard orientation:                         
 ---------------------------------------------------------------------
 Center     Atomic      Atomic             Coordinates (Angstroms)
 Number     Number       Type             X           Y           Z
 ---------------------------------------------------------------------
      1          6           0        1.338364    0.019095    0.003017
      2          1           0        1.008669    1.047054   -0.195311
      3          1           0        0.976961   -0.307846    0.985948
      4          1           0        0.960020   -0.652938   -0.776907
      5         17           0       -2.081565   -0.003225   -0.000512
      6          9           0        2.712309   -0.016223   -0.002570
 ---------------------------------------------------------------------
 Rotational constants (GHZ):    154.7274461      1.5930173      1.5929522
 Standard basis: VSTO-6G (5D, 7F)
 There are    21 symmetry adapted cartesian basis functions of A   symmetry.
 There are    20 symmetry adapted basis functions of A   symmetry.
    20 basis functions,   126 primitive gaussians,    21 cartesian basis functions
    11 alpha electrons       11 beta electrons
       nuclear repulsion energy        64.1366417953 Hartrees.
 Integral buffers will be    131072 words long.
 Regular integral format.
 Two-electron integral symmetry is turned off.
 Do NDO integrals.
 One-electron integrals computed using PRISM.
 NBasis=    20 RedAO= F EigKep=  0.00D+00  NBF=    20
 NBsUse=    20 1.00D-04 EigRej=  0.00D+00 NBFU=    20
 Initial guess from the checkpoint file:  "/scratch/1715567.1.multiway.q/Gau-186785.chk"
 B after Tr=     0.000000    0.000000    0.000000
         Rot=    0.999920    0.012666    0.000014   -0.000057 Ang=   1.45 deg.
 Overlap will be assumed to be unity.
 Keep J ints in memory in canonical form, NReq=1875445.
 Requested convergence on RMS density matrix=1.00D-08 within 128 cycles.
 Requested convergence on MAX density matrix=1.00D-06.
 Requested convergence on             energy=1.00D-06.
 No special actions if energy rises.
 SCF Done:  E(RPM6) = -0.193086349637     A.U. after   11 cycles
            NFock= 10  Conv=0.39D-08     -V/T= 0.9850
 Calling FoFJK, ICntrl=      2127 FMM=F ISym2X=0 I1Cent= 0 IOpClX= 0 NMat=1 NMatS=1 NMatT=0.
 ***** Axes restored to original set *****
 -------------------------------------------------------------------
 Center     Atomic                   Forces (Hartrees/Bohr)
 Number     Number              X              Y              Z
 -------------------------------------------------------------------
      1        6           0.004170549   -0.000555439    0.000212378
      2        1           0.000118149    0.000856168   -0.000034918
      3        1           0.000269505   -0.000152612   -0.000455801
      4        1           0.000359154   -0.000074861    0.000251505
      5       17          -0.003480051   -0.000108254    0.000039471
      6        9          -0.001437307    0.000034997   -0.000012636
 -------------------------------------------------------------------
 Cartesian Forces:  Max     0.004170549 RMS     0.001357860

 GradGradGradGradGradGradGradGradGradGradGradGradGradGradGradGradGradGrad
 Berny optimization.
 Using GEDIIS/GDIIS optimizer.
 FormGI is forming the generalized inverse of G from B-inverse, IUseBI=4.
 Internal  Forces:  Max     0.001437169 RMS     0.000430251
 Search for a local minimum.
 Step number   2 out of a maximum of   45 on scan point     2 out of    21
 All quantities printed in internal units (Hartrees-Bohrs-Radians)
 Mixed Optimization -- En-DIIS/RFO-DIIS
 Update second derivatives using D2CorX and points    1    2
 DE= -5.16D-04 DEPred=-5.02D-04 R= 1.03D+00
 TightC=F SS=  1.41D+00  RLast= 1.88D-01 DXNew= 5.0454D-01 5.6265D-01
 Trust test= 1.03D+00 RLast= 1.88D-01 DXMaxT set to 5.05D-01
 ITU=  1  0
 Use linear search instead of GDIIS.
     Eigenvalues ---    0.02085   0.03154   0.03324   0.07242   0.07268
     Eigenvalues ---    0.09488   0.09573   0.30246   0.32448   0.32518
     Eigenvalues ---    0.628981000.000001000.000001000.000001000.00000
     Eigenvalues --- 1000.000001000.000001000.000001000.000001000.00000
     Eigenvalues --- 1000.000001000.000001000.000001000.000001000.00000
     Eigenvalues --- 1000.000001000.000001000.000001000.000001000.00000
     Eigenvalues --- 1000.000001000.000001000.000001000.000001000.00000
 RFO step:  Lambda=-5.54460959D-06 EMin= 2.08549709D-02
 Quartic linear search produced a step of  0.07409.
 Iteration  1 RMS(Cart)=  0.00143212 RMS(Int)=  0.00004954
 Iteration  2 RMS(Cart)=  0.00000221 RMS(Int)=  0.00004949
 Iteration  3 RMS(Cart)=  0.00000000 RMS(Int)=  0.00004949
 Iteration  1 RMS(Cart)=  0.00000251 RMS(Int)=  0.00000635
 Iteration  2 RMS(Cart)=  0.00000156 RMS(Int)=  0.00000706
 Iteration  3 RMS(Cart)=  0.00000097 RMS(Int)=  0.00000808
 Variable       Old X    -DE/DX   Delta X   Delta X   Delta X     New X
                                 (Linear)    (Quad)   (Total)
    R1        2.07417  -0.00072   0.00067  -0.00258  -0.00189   2.07228
    R2        2.07324  -0.00039   0.00086  -0.00156  -0.00069   2.07255
    R3        2.07272  -0.00021   0.00097  -0.00099  -0.00002   2.07270
    R4        6.46287  -0.00116   0.00000   0.00000   0.00000   6.46287
    R5        2.59726   0.00144  -0.00014   0.00132   0.00118   2.59844
    R6        6.17873  -0.00078  -0.00576  -0.00035  -0.00614   6.17260
    R7        6.10018  -0.00081  -0.00506  -0.00075  -0.00585   6.09433
    R8        6.05779  -0.00084  -0.00450  -0.00101  -0.00556   6.05223
    A1        1.91987   0.00018  -0.00229   0.00031  -0.00210   1.91777
    A2        1.91955   0.00014  -0.00232  -0.00020  -0.00263   1.91692
    A3        1.90034  -0.00012   0.00242   0.00082   0.00325   1.90359
    A4        1.91862   0.00009  -0.00238  -0.00107  -0.00355   1.91506
    A5        1.90211  -0.00014   0.00248   0.00024   0.00273   1.90484
    A6        1.90307  -0.00016   0.00251  -0.00008   0.00244   1.90551
    A7        1.54308  -0.00010   0.00265   0.00055   0.00322   1.54630
    A8        1.58100  -0.00013   0.00230   0.00063   0.00295   1.58395
    A9        1.60169  -0.00015   0.00203   0.00067   0.00272   1.60441
   A10        0.56054  -0.00004   0.00026  -0.00046  -0.00022   0.56032
   A11        0.56220  -0.00002   0.00025  -0.00048  -0.00024   0.56196
   A12        0.56591   0.00001   0.00024  -0.00049  -0.00028   0.56563
    D1       -1.07004  -0.00016   0.00334   0.00069   0.00394  -1.06610
    D2        1.04563   0.00016  -0.00302  -0.00057  -0.00350   1.04213
    D3        3.12988  -0.00002   0.00017  -0.00029  -0.00011   3.12976
    D4        1.09346   0.00017  -0.00354  -0.00056  -0.00401   1.08945
[...]
 ! R7    R(3,5)                  2.2776         -DE/DX =    0.0359              !
 ! R8    R(4,5)                  2.2774         -DE/DX =    0.0359              !
 ! A1    A(2,1,3)               99.3951         -DE/DX =    0.0126              !
 ! A2    A(2,1,4)               99.4748         -DE/DX =    0.0127              !
 ! A3    A(2,1,6)               61.992          -DE/DX =    0.01                !
 ! A4    A(3,1,4)               99.351          -DE/DX =    0.0126              !
 ! A5    A(3,1,6)               61.3719         -DE/DX =    0.01                !
 ! A6    A(4,1,6)               61.8168         -DE/DX =    0.01                !
 ! A7    A(1,2,5)               36.0095         -DE/DX =    0.0169              !
 ! A8    A(1,3,5)               35.9959         -DE/DX =    0.0169              !
 ! A9    A(1,4,5)               35.9995         -DE/DX =    0.0169              !
 ! A10   A(2,5,3)               44.1559         -DE/DX =   -0.0116              !
 ! A11   A(2,5,4)               44.182          -DE/DX =   -0.0116              !
 ! A12   A(3,5,4)               44.1426         -DE/DX =   -0.0116              !
 ! D1    D(3,1,2,5)           -129.3585         -DE/DX =    0.0091              !
 ! D2    D(4,1,2,5)            129.4211         -DE/DX =   -0.0091              !
 ! D3    D(6,1,2,5)           -179.7108         -DE/DX =    0.0                 !
 ! D4    D(2,1,3,5)            129.3498         -DE/DX =   -0.0091              !
 ! D5    D(4,1,3,5)           -129.3269         -DE/DX =    0.0091              !
 ! D6    D(6,1,3,5)           -179.8917         -DE/DX =    0.0                 !
 ! D7    D(2,1,4,5)           -129.4143         -DE/DX =    0.0091              !
 ! D8    D(3,1,4,5)            129.3287         -DE/DX =   -0.0091              !
 ! D9    D(6,1,4,5)            179.6025         -DE/DX =    0.0                 !
 ! D10   D(1,2,5,3)             32.6653         -DE/DX =   -0.0015              !
 ! D11   D(1,2,5,4)            -32.6045         -DE/DX =    0.0015              !
 ! D12   D(1,3,5,2)            -32.6647         -DE/DX =    0.0015              !
 ! D13   D(1,3,5,4)             32.6932         -DE/DX =   -0.0015              !
 ! D14   D(1,4,5,2)             32.6052         -DE/DX =   -0.0015              !
 ! D15   D(1,4,5,3)            -32.6943         -DE/DX =    0.0015              !
 --------------------------------------------------------------------------------
 GradGradGradGradGradGradGradGradGradGradGradGradGradGradGradGradGradGrad

 Summary of Optimized Potential Surface Scan
                           1         2         3         4         5
     Eigenvalues --    -0.19247  -0.19309  -0.19380  -0.19457  -0.19534
           R1           1.09619   1.09605   1.09579   1.09582   1.09569
           R2           1.09678   1.09651   1.09649   1.09629   1.09627
           R3           1.09714   1.09677   1.09689   1.09652   1.09655
           R4           3.52000   3.42000   3.32000   3.22001   3.12000
           R5           1.37500   1.37556   1.37609   1.37676   1.37759
           R6           3.36664   3.26646   3.16995   3.07500   2.97848
           R7           3.32052   3.22475   3.12903   3.03397   2.94095
           R8           3.29447   3.20228   3.10783   3.01358   2.92350
           A1         109.98566 109.89674 109.90074 109.79170 109.86902
           A2         109.89096 109.82673 109.78804 109.74621 109.78958
           A3         109.02304 109.08518 109.13165 109.16288 109.12331
           A4         109.70982 109.68420 109.56818 109.63077 109.61318
           A5         109.08690 109.14755 109.19972 109.22969 109.19666
           A6         109.12232 109.18076 109.23457 109.26256 109.23102
           A7          88.87065  88.60217  88.12801  87.55077  87.03636
           A8          91.27175  90.77036  90.24448  89.66960  88.96409
           A9          92.64177  91.94931  91.35015  90.73206  89.86711
           A10         31.15312  32.09613  33.10031  34.13462  35.27906
           A11         31.25043  32.18913  33.18726  34.23580  35.36534
           A12         31.46783  32.39890  33.39262  34.47471  35.58310
           D1         -61.23014 -61.06142 -60.92709 -60.91164 -60.83759
           D2          59.64867  59.68802  59.65672  59.65435  59.78283
           D3         179.20241 179.31248 179.35202 179.37769 179.46961
           D4          62.72057  62.40886  62.24752  62.23865  62.04873
           D5         -58.26707 -58.42647 -58.46898 -58.39719 -58.67818
           D6        -177.75088-178.00308-178.07307-178.09148-178.30321
           D7         -61.95934 -61.74397 -61.64716 -61.62426 -61.54583
           D8          59.08543  59.13370  59.13771  59.03917  59.22923
           D9         178.54753 178.68996 178.72042 178.71332 178.83319
           D10         31.73324  31.77669  31.82579  31.97020  32.00842
           D11        -31.39315 -31.47529 -31.57439 -31.68962 -31.79743
           D12        -31.71601 -31.75442 -31.78444 -31.92280 -31.94760
           D13         30.71688  30.84819  30.99949  31.04176  31.24537
           D14         31.39342  31.46204  31.53015  31.63766  31.72235
           D15        -30.73371 -30.85674 -30.99627 -31.03680 -31.23089
                           6         7         8         9        10
     Eigenvalues --    -0.19599  -0.19630  -0.19595  -0.19459  -0.19185
           R1           1.09583   1.09544   1.09527   1.09483   1.09443
           R2           1.09598   1.09570   1.09529   1.09497   1.09477
           R3           1.09602   1.09581   1.09531   1.09504   1.09491
           R4           3.02000   2.92001   2.82000   2.72001   2.62001
           R5           1.37957   1.38196   1.38587   1.39083   1.39772
           R6           2.87787   2.77374   2.68948   2.61240   2.53965
           R7           2.85293   2.77015   2.68959   2.61262   2.54033
           R8           2.84298   2.77085   2.68979   2.61093   2.53767
           A1         109.98595 110.27985 110.81993 111.52196 112.39791
           A2         109.96649 110.29199 110.81917 111.51889 112.39966
           A3         108.94086 108.64758 108.08920 107.34393 106.37039
           A4         109.89471 110.29436 110.81511 111.51748 112.40298
           A5         109.00118 108.64222 108.08835 107.33161 106.34567
           A6         109.02516 108.63257 108.08721 107.33241 106.34661
           A7          86.70493  86.53572  85.32158  83.72886  81.90110
           A8          87.98431  86.71474  85.31546  83.71526  81.86210
           A9          88.49768  86.67732  85.30478  83.79945  81.99162
           A10         36.50923  37.84743  39.17576  40.54295  41.96784
           A11         36.56804  37.84738  39.17426  40.55717  41.99420
           A12         36.72574  37.87808  39.17294  40.55777  41.99584
           D1         -60.88793 -61.01342 -61.72237 -62.75428 -64.08765
           D2          60.26934  61.05012  61.73588  62.64750  63.91664
           D3         179.69952-179.98395-179.99416 179.94624 179.91552
           D4          61.68996  61.12850  61.71889  62.74764  64.06744
           D5         -59.51033 -60.93363 -61.74169 -62.65492 -63.93510
           D6        -178.93430-179.89770 179.99120-179.94543-179.92086
           D7         -61.38652 -61.14325 -61.72587 -62.69510 -63.98148
           D8          59.82544  60.91172  61.73515  62.70916  64.02014
           D9         179.23475 179.88167 180.00296-180.00081-179.99466
           D10         32.01587  31.93440  32.04996  32.22615  32.40722
           D11        -31.87943 -31.93889 -32.05354 -32.20731 -32.37814
           D12        -31.97380 -31.91937 -32.04937 -32.22236 -32.39964
           D13         31.49294  31.87354  32.05748  32.20964  32.38185
           D14         31.82642  31.92168  32.05306  32.19558  32.35405
           D15        -31.48192 -31.87137 -32.05758 -32.20170 -32.36532
                          11        12        13        14        15
     Eigenvalues --    -0.18736  -0.18086  -0.17225  -0.16160  -0.14938
           R1           1.09406   1.09396   1.09381   1.09361   1.09318
           R2           1.09438   1.09395   1.09364   1.09365   1.09317
           R3           1.09450   1.09399   1.09368   1.09365   1.09276
           R4           2.52000   2.42001   2.32000   2.22001   2.12001
           R5           1.40788   1.42175   1.44138   1.47165   1.52575
           R6           2.47169   2.41151   2.35976   2.31653   2.29127
           R7           2.47332   2.41098   2.35678   2.31768   2.29190
           R8           2.47154   2.41280   2.36041   2.31644   2.29188
           A1         113.45472 114.78744 116.13486 117.61881 119.08429
           A2         113.47026 114.73443 116.10358 117.60765 119.18620
           A3         105.10904 103.49758 101.51334  98.96804  95.41073
           A4         113.48691 114.63815 116.09933 117.63055 119.08978
           A5         105.08591 103.51342 101.54070  98.95312  95.41596
           A6         105.08845 103.50681 101.51690  98.96829  95.41833
           A7          79.82104  77.34717  74.46644  71.18776  67.08502
           A8          79.73657  77.37297  74.61007  71.13357  67.05595
           A9          79.82192  77.28473  74.43663  71.19170  67.05903
           A10         43.43199  44.93797  46.35713  47.62632  48.56167
           A11         43.45515  44.90693  46.31217  47.63697  48.57919
           A12         43.45109  44.88644  46.33792  47.63151  48.54644
           D1         -65.78756 -67.88831 -70.78914 -74.93853 -80.71913
           D2          65.66535  68.02720  71.03289  74.86163  80.70914
           D3         179.94423-179.94629-179.89817 179.96871 180.00591
           D4          65.73745  67.90514  70.88285  74.90183  80.69832
           D5         -65.70727 -68.05321 -70.94082 -74.89135 -80.74799
           D6        -179.98051 179.95373 179.97578-179.99669-180.02976
           D7         -65.67254 -67.98647 -71.01079 -74.86508 -80.68381
           D8          65.76454  67.99550  70.82493  74.93150  80.74343
           D9        -179.96374 179.99250 179.92237-179.97202-179.97619
           D10         32.58069  32.70404  32.93059  33.12774  33.28063
           D11        -32.55615 -32.74946 -32.96748 -33.13182 -33.21839
           D12        -32.57973 -32.70064 -32.91085 -33.13840 -33.28889
           D13         32.56637  32.79795  32.93233  33.13249  33.27674
           D14         32.54110  32.75753  32.97723  33.12939  33.23992
           D15        -32.55227 -32.80944 -32.96183 -33.11941 -33.29006
                          16        17        18        19        20
     Eigenvalues --    -0.13756  -0.13773  -0.13964  -0.13641  -0.12435
           R1           1.08756   1.08883   1.09404   1.10172   1.11087
           R2           1.08750   1.08817   1.09446   1.10182   1.11106
           R3           1.08752   1.08891   1.09410   1.10173   1.11091
           R4           2.02000   1.92000   1.82000   1.72000   1.62000
           R5           1.73734   2.53265   2.71830   2.83367   2.91612
           R6           2.33952   2.44992   2.40946   2.36722   2.32261
           R7           2.33951   2.44939   2.41037   2.36741   2.32290
           R8           2.33942   2.45004   2.41014   2.36734   2.32256
           A1         119.78408 113.04464 109.92109 106.60393 103.09135
           A2         119.76583 112.84969 110.00152 106.63480 103.15154
           A3          87.25929  74.36131  71.02537  67.88150  64.89247
           A4         119.77027 113.04615 109.81763 106.59613 103.07568
           A5          87.25621  74.18416  70.89776  67.70384  64.54026
           A6          87.26298  74.40980  71.00083  67.81930  64.77249
           A7          59.59147  48.98380  45.57987  42.28071  39.10815
           A8          59.59163  49.00028  45.54189  42.27356  39.09754
           A9          59.59583  48.97919  45.54701  42.27515  39.11113
           A10         47.42343  43.50901  43.64920  43.82159  43.99382
           A11         47.42003  43.46704  43.66642  43.82960  44.01329
           A12         47.42002  43.51005  43.61483  43.81835  43.98987
           D1         -94.73847-115.11324-119.45384-123.19543-126.47370
           D2          94.73000 115.02768 119.50396 123.21633 126.49662
           D3        -179.99945-179.85813-179.93613-179.92812-179.86326
           D4          94.73776 115.11732 119.42614 123.19019 126.46583
           D5         -94.73113-115.12340-119.42124-123.19515-126.44690
           D6         180.00052 179.96821-180.01367-179.96633-179.91975
           D7         -94.73265-115.02502-119.47541-123.21119-126.50014
           D8          94.73449 115.11667 119.42034 123.19524 126.45830
           D9         179.99893 179.88999 179.94971 179.89445 179.78306
           D10         33.09290  32.52472  32.58384  32.61649  32.63963
           D11        -33.10405 -32.64665 -32.52704 -32.59453 -32.60716
           D12        -33.09462 -32.53774 -32.59377 -32.61815 -32.64191
           D13         33.10233  32.53585  32.63404  32.61828  32.65754
           D14         33.10374  32.64641  32.54581  32.59813  32.60378
           D15        -33.10030 -32.52258 -32.64293 -32.62022 -32.65187
                          21
     Eigenvalues --    -0.09857
           R1           1.12220
           R2           1.12258
           R3           1.12245
           R4           1.52000
           R5           2.97214
           R6           2.27712
           R7           2.27758
           R8           2.27744
           A1          99.39512
           A2          99.47478
           A3          61.99205
           A4          99.35103
           A5          61.37194
           A6          61.81680
           A7          36.00955
           A8          35.99592
           A9          35.99952
           A10         44.15589
           A11         44.18197
           A12         44.14262
           D1        -129.35846
           D2         129.42114
           D3        -179.71084
           D4         129.34978
           D5        -129.32690
           D6        -179.89170
           D7        -129.41428
           D8         129.32871
           D9         179.60248
           D10         32.66526
           D11        -32.60455
           D12        -32.66475
           D13         32.69321
           D14         32.60517
           D15        -32.69435
                          Input orientation:                          
 ---------------------------------------------------------------------
 Center     Atomic      Atomic             Coordinates (Angstroms)
 Number     Number       Type             X           Y           Z
 ---------------------------------------------------------------------
      1          6           0        1.167901   -0.879350   -0.014934
      2          1           0        0.662065   -1.881074   -0.010871
      3          1           0        0.629103   -0.398497    0.844527
      4          1           0        0.618087   -0.398176   -0.867036
      5         17           0        2.687370   -0.840294   -0.024805
      6          9           0       -1.803397   -0.942378    0.017600
 ---------------------------------------------------------------------
                    Distance matrix (angstroms):
                    1          2          3          4          5
     1  C    0.000000
     2  H    1.122202   0.000000
     3  H    1.122585   1.711966   0.000000
     4  H    1.122453   1.712874   1.711598   0.000000
     5  Cl   1.520003   2.277121   2.277583   2.277445   0.000000
     6  F    2.972144   2.638268   2.626152   2.634828   4.492127
                    6
     6  F    0.000000
 Stoichiometry    CH3ClF(1-)
 Framework group  C1[X(CH3ClF)]
 Deg. of freedom    12
 Full point group                 C1      NOp   1
 Largest Abelian subgroup         C1      NOp   1
 Largest concise Abelian subgroup C1      NOp   1
                         Standard orientation:                         
 ---------------------------------------------------------------------
 Center     Atomic      Atomic             Coordinates (Angstroms)
 Number     Number       Type             X           Y           Z
 ---------------------------------------------------------------------
      1          6           0       -0.071554    0.002005   -0.004120
      2          1           0        0.456942    0.935872   -0.332634
      3          1           0        0.464250   -0.180395    0.965334
      4          1           0        0.459121   -0.747417   -0.649605
      5         17           0       -1.591544   -0.000765    0.001577
      6          9           0        2.900584   -0.000788    0.001646
 ---------------------------------------------------------------------
 Rotational constants (GHZ):    171.0315479      2.0167147      2.0166962

 **********************************************************************

            Population analysis using the SCF density.

 **********************************************************************

 Orbital symmetries:
       Occupied  (A) (A) (A) (A) (A) (A) (A) (A) (A) (A) (A)
       Virtual   (A) (A) (A) (A) (A) (A) (A) (A) (A)
 The electronic state is 1-A.
 Alpha  occ. eigenvalues --   -0.92521  -0.90461  -0.72381  -0.43624  -0.40936
 Alpha  occ. eigenvalues --   -0.40909  -0.23516  -0.23503  -0.14833  -0.14828
 Alpha  occ. eigenvalues --   -0.14828
 Alpha virt. eigenvalues --    0.21645   0.34489   0.34497   0.39185   3.38143
 Alpha virt. eigenvalues --    3.38143   3.38808   3.38809   3.39659
          Condensed to atoms (all electrons):
               1          2          3          4          5          6
     1  C    4.615813   0.000000   0.000000   0.000000   0.000000   0.000000
     2  H    0.000000   0.775505   0.000000   0.000000   0.000000   0.000000
     3  H    0.000000   0.000000   0.774370   0.000000   0.000000   0.000000
     4  H    0.000000   0.000000   0.000000   0.775159   0.000000   0.000000
     5  Cl   0.000000   0.000000   0.000000   0.000000   7.060132   0.000000
     6  F    0.000000   0.000000   0.000000   0.000000   0.000000   7.999022
 Mulliken charges:
               1
     1  C   -0.615813
     2  H    0.224495
     3  H    0.225630
     4  H    0.224841
     5  Cl  -0.060132
     6  F   -0.999022
 Sum of Mulliken charges =  -1.00000
 Mulliken charges with hydrogens summed into heavy atoms:
               1
     1  C    0.059154
     5  Cl  -0.060132
     6  F   -0.999022
 Charge=             -1.0000 electrons
 Dipole moment (field-independent basis, Debye):
    X=            -11.4018    Y=              0.0014    Z=             -0.0115  Tot=             11.4018
 N-N= 6.458517593552D+01 E-N=-1.066811142835D+02  KE=-1.323963238321D+01
 1\1\GINC-COMP145\Scan\RPM6\ZDO\C1H3Cl1F1(1-)\BALL4935\31-Aug-2018\0\\#
  opt=modredundant pm6\\Title Card Required\\-1,1\C,1.1679006389,-0.879
 3500854,-0.0149344695\H,0.6620645726,-1.8810735718,-0.0108708292\H,0.6
 291034312,-0.3984965953,0.844526902\H,0.6180868929,-0.3981762107,-0.86
 70359442\Cl,2.687369978,-0.8402940981,-0.0248049721\F,-1.8033969637,-0
 .9423780987,0.017599913\\Version=ES64L-G09RevD.01\State=1-A\HF=-0.1924
 705,-0.1930933,-0.193796,-0.1945655,-0.1953407,-0.1959912,-0.1962972,-
 0.1959513,-0.1945946,-0.1918457,-0.187356,-0.1808631,-0.1722466,-0.161
 5989,-0.1493833,-0.1375596,-0.137729,-0.1396426,-0.1364113,-0.1243475,
 -0.0985738\RMSD=3.086e-09,3.834e-09,6.531e-09,2.636e-09,4.832e-09,4.91
 4e-09,4.174e-09,3.431e-09,3.104e-09,2.151e-09,4.449e-09,6.874e-09,5.01
 9e-09,2.490e-09,6.554e-09,3.559e-09,1.523e-09,4.030e-09,5.353e-09,7.29
 7e-09,3.489e-09\PG=C01 [X(C1H3Cl1F1)]\\@


 ALL THINGS ARE POSSIBLE EXCEPT SKIING THROUGH A REVOLVING DOOR.
 Job cpu time:       0 days  0 hours  0 minutes 42.8 seconds.
 File lengths (MBytes):  RWF=      5 Int=      0 D2E=      0 Chk=      2 Scr=      1
 Normal termination of Gaussian 09 at Fri Aug 31 20:11:10 2018.
